
     Program PWSCF v.4.3.2      starts on 11Aug2011 at 16: 7:57 

     This program is part of the open-source Quantum ESPRESSO suite
     for quantum simulation of materials; please cite
         "P. Giannozzi et al., J. Phys.:Condens. Matter 21 395502 (2009);
          URL http://www.quantum-espresso.org", 
     in publications or presentations arising from this work. More details at
     http://www.quantum-espresso.org/quote.php

     Parallel version (MPI), running on    12 processors
     R & G space division:  proc/pool =   12

     Current dimensions of program PWSCF are:
     Max number of different atomic species (ntypx) = 10
     Max number of k-points (npk) =  40000
     Max angular momentum in pseudopotentials (lmaxx) =  3
     Waiting for input...
     Reading input from stdin

     Subspace diagonalization in iterative solution of the eigenvalue problem:
     a serial algorithm will be used

 
     Parallelization info
     --------------------
     sticks:   dense  smooth     PW     G-vecs:    dense   smooth      PW
     Min          13      13      5                 1955     1955     435
     Max          14      14      6                 1996     1996     467
     Sum         163     163     61                23647    23647    5473
 


     bravais-lattice index     =            0
     lattice parameter (alat)  =       7.6534  a.u.
     unit-cell volume          =    1941.1667 (a.u.)^3
     number of atoms/cell      =            7
     number of atomic types    =            1
     number of electrons       =        21.00
     number of Kohn-Sham states=           15
     kinetic-energy cutoff     =      20.0000  Ry
     charge density cutoff     =      80.0000  Ry
     convergence threshold     =      1.0E-06
     mixing beta               =       0.5000
     number of iterations used =            8  plain     mixing
     Exchange-correlation      =  SLA  PW   PBE  PBE ( 1 4 3 4 0)
     EXX-fraction              =        0.00

     Effective Screening Medium Method
     =================================
     field strength (Ry/a.u.)         =       0.00 
     ESM offset from cell edge (a.u.) =       0.00 
     grid points for fit at edges     =          4 
     Boundary Conditions: Vacuum-Slab-Metal
 

     celldm(1)=   7.653394  celldm(2)=   0.000000  celldm(3)=   0.000000
     celldm(4)=   0.000000  celldm(5)=   0.000000  celldm(6)=   0.000000

     crystal axes: (cart. coord. in units of alat)
               a(1) = (   0.707107   0.000000   0.000000 )  
               a(2) = (   0.353553   0.612372   0.000000 )  
               a(3) = (   0.000000   0.000000  10.000000 )  

     reciprocal axes: (cart. coord. in units 2 pi/alat)
               b(1) = (  1.414214 -0.816497  0.000000 )  
               b(2) = (  0.000000  1.632993  0.000000 )  
               b(3) = (  0.000000  0.000000  0.100000 )  


     PseudoPot. # 1 for Al read from file:
     /p/lscratcha/wood37/data/esm_code_081011/espresso/pseudo/Al.pbe-rrkj.UPF
     MD5 check sum: b5320f8fdc07ab0d74f109f4aa58256b
     Pseudo is Norm-conserving, Zval =  3.0
     Generated by new atomic code, or converted to UPF format
     Using radial grid of  879 points,  4 beta functions with: 
                l(1) =   0
                l(2) =   0
                l(3) =   1
                l(4) =   1

     atomic species   valence    mass     pseudopotential
        Al             3.00    26.98154     Al( 1.00)

     No symmetry found

   Cartesian axes

     site n.     atom                  positions (alat units)
         1           Al  tau(   1) = (   0.0000000   0.0000000  -1.7320512  )
         2           Al  tau(   2) = (   0.0000000   0.4082492  -1.1547008  )
         3           Al  tau(   3) = (   0.3535529   0.2041234  -0.5773504  )
         4           Al  tau(   4) = (   0.0000000   0.0000000   0.0000000  )
         5           Al  tau(   5) = (   0.0000000   0.4082492   0.5773504  )
         6           Al  tau(   6) = (   0.3535529   0.2041234   1.1547008  )
         7           Al  tau(   7) = (   0.0000000   0.0000000   1.7320512  )

     number of k points=    34  Methfessel-Paxton smearing, width (Ry)=  0.0500
                       cart. coord. in units 2pi/alat
        k(    1) = (   0.0000000   0.0000000   0.0000000), wk =   0.0312500
        k(    2) = (   0.0000000   0.2041241   0.0000000), wk =   0.0625000
        k(    3) = (   0.0000000   0.4082483   0.0000000), wk =   0.0625000
        k(    4) = (   0.0000000   0.6123724   0.0000000), wk =   0.0625000
        k(    5) = (   0.0000000  -0.8164966   0.0000000), wk =   0.0312500
        k(    6) = (   0.1767767  -0.1020621   0.0000000), wk =   0.0625000
        k(    7) = (   0.1767767   0.1020621   0.0000000), wk =   0.0625000
        k(    8) = (   0.1767767   0.3061862   0.0000000), wk =   0.0625000
        k(    9) = (   0.1767767   0.5103104   0.0000000), wk =   0.0625000
        k(   10) = (   0.1767767  -0.9185587   0.0000000), wk =   0.0625000
        k(   11) = (   0.1767767  -0.7144345   0.0000000), wk =   0.0625000
        k(   12) = (   0.1767767  -0.5103104   0.0000000), wk =   0.0625000
        k(   13) = (   0.1767767  -0.3061862   0.0000000), wk =   0.0625000
        k(   14) = (   0.3535534  -0.2041241   0.0000000), wk =   0.0625000
        k(   15) = (   0.3535534   0.0000000   0.0000000), wk =   0.0625000
        k(   16) = (   0.3535534   0.2041241   0.0000000), wk =   0.0625000
        k(   17) = (   0.3535534   0.4082483   0.0000000), wk =   0.0625000
        k(   18) = (   0.3535534  -1.0206207   0.0000000), wk =   0.0625000
        k(   19) = (   0.3535534  -0.8164966   0.0000000), wk =   0.0625000
        k(   20) = (   0.3535534  -0.6123724   0.0000000), wk =   0.0625000
        k(   21) = (   0.3535534  -0.4082483   0.0000000), wk =   0.0625000
        k(   22) = (   0.5303301  -0.3061862   0.0000000), wk =   0.0625000
        k(   23) = (   0.5303301  -0.1020621   0.0000000), wk =   0.0625000
        k(   24) = (   0.5303301   0.1020621   0.0000000), wk =   0.0625000
        k(   25) = (   0.5303301   0.3061862   0.0000000), wk =   0.0625000
        k(   26) = (   0.5303301  -1.1226828   0.0000000), wk =   0.0625000
        k(   27) = (   0.5303301  -0.9185587   0.0000000), wk =   0.0625000
        k(   28) = (   0.5303301  -0.7144345   0.0000000), wk =   0.0625000
        k(   29) = (   0.5303301  -0.5103104   0.0000000), wk =   0.0625000
        k(   30) = (  -0.7071068   0.4082483   0.0000000), wk =   0.0312500
        k(   31) = (  -0.7071068   0.6123724   0.0000000), wk =   0.0625000
        k(   32) = (  -0.7071068   0.8164966   0.0000000), wk =   0.0625000
        k(   33) = (  -0.7071068   1.0206207   0.0000000), wk =   0.0625000
        k(   34) = (  -0.7071068  -0.4082483   0.0000000), wk =   0.0312500

     Dense  grid:    23647 G-vectors     FFT dimensions: (  15,  15, 225)

     Largest allocated arrays     est. size (Mb)     dimensions
        Kohn-Sham Wavefunctions         0.06 Mb     (    264,   15)
        NL pseudopotentials             0.23 Mb     (    264,   56)
        Each V/rho on FFT grid          0.07 Mb     (   4275)
        Each G-vector array             0.01 Mb     (   1963)
        G-vector shells                 0.01 Mb     (    963)
     Largest temporary arrays     est. size (Mb)     dimensions
        Auxiliary wavefunctions         0.24 Mb     (    264,   60)
        Each subspace H/S matrix        0.05 Mb     (  60,  60)
        Each <psi_i|beta_j> matrix      0.01 Mb     (     56,   15)
        Arrays for rho mixing           0.52 Mb     (   4275,   8)

     Initial potential from superposition of free atoms

     starting charge   20.98187, renormalised to   21.00000

     negative rho (up, down):  0.215E-04 0.000E+00
     Starting wfc are   28 atomic wfcs

     total cpu time spent up to now is        0.6 secs

     per-process dynamical memory:    18.5 Mb

     Self-consistent Calculation

     iteration #  1     ecut=    20.00 Ry     beta=0.50
     Davidson diagonalization with overlap
     ethr =  1.00E-02,  avg # of iterations =  4.6

     negative rho (up, down):  0.428E-05 0.000E+00

     total cpu time spent up to now is        2.4 secs

     total energy              =     -28.47589390 Ry
     Harris-Foulkes estimate   =     -28.88619555 Ry
     estimated scf accuracy    <       0.58624377 Ry

     iteration #  2     ecut=    20.00 Ry     beta=0.50
     Davidson diagonalization with overlap
     c_bands:  1 eigenvalues not converged
     c_bands:  1 eigenvalues not converged
     c_bands:  1 eigenvalues not converged
     c_bands:  1 eigenvalues not converged
     c_bands:  1 eigenvalues not converged
     c_bands:  1 eigenvalues not converged
     c_bands:  1 eigenvalues not converged
     c_bands:  1 eigenvalues not converged
     c_bands:  1 eigenvalues not converged
     ethr =  2.79E-03,  avg # of iterations = 17.8

     negative rho (up, down):  0.195E-05 0.000E+00

     total cpu time spent up to now is        5.1 secs

     total energy              =     -24.69072871 Ry
     Harris-Foulkes estimate   =     -32.92138835 Ry
     estimated scf accuracy    <     150.71795976 Ry

     iteration #  3     ecut=    20.00 Ry     beta=0.50
     Davidson diagonalization with overlap
     c_bands:  1 eigenvalues not converged
     c_bands:  1 eigenvalues not converged
     c_bands:  1 eigenvalues not converged
     ethr =  2.79E-03,  avg # of iterations = 14.6

     negative rho (up, down):  0.101E-05 0.000E+00

     total cpu time spent up to now is        7.3 secs

     total energy              =     -28.83755231 Ry
     Harris-Foulkes estimate   =     -28.85397758 Ry
     estimated scf accuracy    <       0.26529909 Ry

     iteration #  4     ecut=    20.00 Ry     beta=0.50
     Davidson diagonalization with overlap
     ethr =  1.26E-03,  avg # of iterations =  6.8

     negative rho (up, down):  0.645E-06 0.000E+00

     total cpu time spent up to now is        8.3 secs

     total energy              =     -28.90860646 Ry
     Harris-Foulkes estimate   =     -28.94568932 Ry
     estimated scf accuracy    <       0.41636730 Ry

     iteration #  5     ecut=    20.00 Ry     beta=0.50
     Davidson diagonalization with overlap
     ethr =  1.26E-03,  avg # of iterations =  1.0

     total cpu time spent up to now is        8.9 secs

     total energy              =     -28.91625424 Ry
     Harris-Foulkes estimate   =     -28.92651886 Ry
     estimated scf accuracy    <       0.07457247 Ry

     iteration #  6     ecut=    20.00 Ry     beta=0.50
     Davidson diagonalization with overlap
     ethr =  3.55E-04,  avg # of iterations =  5.1

     total cpu time spent up to now is        9.7 secs

     total energy              =     -28.92585810 Ry
     Harris-Foulkes estimate   =     -28.93722943 Ry
     estimated scf accuracy    <       0.19174586 Ry

     iteration #  7     ecut=    20.00 Ry     beta=0.50
     Davidson diagonalization with overlap
     ethr =  3.55E-04,  avg # of iterations =  3.0

     negative rho (up, down):  0.595E-07 0.000E+00

     total cpu time spent up to now is       11.3 secs

     total energy              =     -28.89117274 Ry
     Harris-Foulkes estimate   =     -28.96376267 Ry
     estimated scf accuracy    <       3.01502355 Ry

     iteration #  8     ecut=    20.00 Ry     beta=0.50
     Davidson diagonalization with overlap
     ethr =  3.55E-04,  avg # of iterations =  1.8

     negative rho (up, down):  0.215E-07 0.000E+00

     total cpu time spent up to now is       12.0 secs

     total energy              =     -28.92635926 Ry
     Harris-Foulkes estimate   =     -28.92629467 Ry
     estimated scf accuracy    <       0.01453095 Ry

     iteration #  9     ecut=    20.00 Ry     beta=0.50
     Davidson diagonalization with overlap
     c_bands:  1 eigenvalues not converged
     c_bands:  1 eigenvalues not converged
     c_bands:  1 eigenvalues not converged
     c_bands:  1 eigenvalues not converged
     c_bands:  1 eigenvalues not converged
     c_bands:  1 eigenvalues not converged
     c_bands:  1 eigenvalues not converged
     ethr =  6.92E-05,  avg # of iterations = 12.6

     negative rho (up, down):  0.194E-07 0.000E+00

     total cpu time spent up to now is       13.3 secs

     total energy              =     -28.92843244 Ry
     Harris-Foulkes estimate   =     -28.92861140 Ry
     estimated scf accuracy    <       0.02929677 Ry

     iteration # 10     ecut=    20.00 Ry     beta=0.50
     Davidson diagonalization with overlap
     ethr =  6.92E-05,  avg # of iterations =  2.5

     negative rho (up, down):  0.107E-07 0.000E+00

     total cpu time spent up to now is       13.9 secs

     total energy              =     -28.92782875 Ry
     Harris-Foulkes estimate   =     -28.92862673 Ry
     estimated scf accuracy    <       0.02643130 Ry

     iteration # 11     ecut=    20.00 Ry     beta=0.50
     Davidson diagonalization with overlap
     ethr =  6.92E-05,  avg # of iterations =  1.0

     negative rho (up, down):  0.412E-07 0.000E+00

     total cpu time spent up to now is       14.5 secs

     total energy              =     -28.92705087 Ry
     Harris-Foulkes estimate   =     -28.92813505 Ry
     estimated scf accuracy    <       0.01759139 Ry

     iteration # 12     ecut=    20.00 Ry     beta=0.50
     Davidson diagonalization with overlap
     ethr =  6.92E-05,  avg # of iterations =  1.0

     negative rho (up, down):  0.309E-03 0.000E+00

     total cpu time spent up to now is       15.1 secs

     total energy              =     -28.92730595 Ry
     Harris-Foulkes estimate   =     -28.92755571 Ry
     estimated scf accuracy    <       0.00381015 Ry

     iteration # 13     ecut=    20.00 Ry     beta=0.50
     Davidson diagonalization with overlap
     c_bands:  1 eigenvalues not converged
     ethr =  1.81E-05,  avg # of iterations =  9.1

     negative rho (up, down):  0.178E-04 0.000E+00

     total cpu time spent up to now is       16.2 secs

     total energy              =     -28.92849421 Ry
     Harris-Foulkes estimate   =     -28.92849571 Ry
     estimated scf accuracy    <       0.00155002 Ry

     iteration # 14     ecut=    20.00 Ry     beta=0.50
     Davidson diagonalization with overlap
     c_bands:  1 eigenvalues not converged
     c_bands:  1 eigenvalues not converged
     c_bands:  1 eigenvalues not converged
     ethr =  7.38E-06,  avg # of iterations =  9.1

     negative rho (up, down):  0.376E-07 0.000E+00

     total cpu time spent up to now is       17.6 secs

     total energy              =     -28.92854776 Ry
     Harris-Foulkes estimate   =     -28.92872247 Ry
     estimated scf accuracy    <       0.00320169 Ry

     iteration # 15     ecut=    20.00 Ry     beta=0.50
     Davidson diagonalization with overlap
     ethr =  7.38E-06,  avg # of iterations =  2.6

     total cpu time spent up to now is       18.2 secs

     total energy              =     -28.92864771 Ry
     Harris-Foulkes estimate   =     -28.92864879 Ry
     estimated scf accuracy    <       0.00317343 Ry

     iteration # 16     ecut=    20.00 Ry     beta=0.50
     Davidson diagonalization with overlap
     ethr =  7.38E-06,  avg # of iterations =  1.0

     total cpu time spent up to now is       18.8 secs

     total energy              =     -28.92867692 Ry
     Harris-Foulkes estimate   =     -28.92867467 Ry
     estimated scf accuracy    <       0.00250127 Ry

     iteration # 17     ecut=    20.00 Ry     beta=0.50
     Davidson diagonalization with overlap
     ethr =  7.38E-06,  avg # of iterations =  1.0

     total cpu time spent up to now is       19.4 secs

     total energy              =     -28.92870179 Ry
     Harris-Foulkes estimate   =     -28.92869225 Ry
     estimated scf accuracy    <       0.00254532 Ry

     iteration # 18     ecut=    20.00 Ry     beta=0.50
     Davidson diagonalization with overlap
     ethr =  7.38E-06,  avg # of iterations =  1.0

     total cpu time spent up to now is       20.1 secs

     total energy              =     -28.92869993 Ry
     Harris-Foulkes estimate   =     -28.92871624 Ry
     estimated scf accuracy    <       0.00275207 Ry

     iteration # 19     ecut=    20.00 Ry     beta=0.50
     Davidson diagonalization with overlap
     ethr =  7.38E-06,  avg # of iterations =  1.0

     total cpu time spent up to now is       21.6 secs

     total energy              =     -28.92853531 Ry
     Harris-Foulkes estimate   =     -28.92871384 Ry
     estimated scf accuracy    <       0.00262772 Ry

     iteration # 20     ecut=    20.00 Ry     beta=0.50
     Davidson diagonalization with overlap
     ethr =  7.38E-06,  avg # of iterations =  1.0

     total cpu time spent up to now is       22.6 secs

     total energy              =     -28.92852092 Ry
     Harris-Foulkes estimate   =     -28.92858523 Ry
     estimated scf accuracy    <       0.00112729 Ry

     iteration # 21     ecut=    20.00 Ry     beta=0.50
     Davidson diagonalization with overlap
     ethr =  5.37E-06,  avg # of iterations =  1.0

     negative rho (up, down):  0.272E-04 0.000E+00

     total cpu time spent up to now is       24.5 secs

     total energy              =     -28.92852071 Ry
     Harris-Foulkes estimate   =     -28.92854843 Ry
     estimated scf accuracy    <       0.00060897 Ry

     iteration # 22     ecut=    20.00 Ry     beta=0.50
     Davidson diagonalization with overlap
     ethr =  2.90E-06,  avg # of iterations =  2.7

     negative rho (up, down):  0.641E-05 0.000E+00

     total cpu time spent up to now is       26.5 secs

     total energy              =     -28.92851049 Ry
     Harris-Foulkes estimate   =     -28.92854605 Ry
     estimated scf accuracy    <       0.00049370 Ry

     iteration # 23     ecut=    20.00 Ry     beta=0.50
     Davidson diagonalization with overlap
     ethr =  2.35E-06,  avg # of iterations =  2.7

     negative rho (up, down):  0.135E-04 0.000E+00

     total cpu time spent up to now is       28.0 secs

     total energy              =     -28.92855306 Ry
     Harris-Foulkes estimate   =     -28.92856711 Ry
     estimated scf accuracy    <       0.00017797 Ry

     iteration # 24     ecut=    20.00 Ry     beta=0.50
     Davidson diagonalization with overlap
     ethr =  8.47E-07,  avg # of iterations =  3.2

     total cpu time spent up to now is       29.1 secs

     total energy              =     -28.92858197 Ry
     Harris-Foulkes estimate   =     -28.92858885 Ry
     estimated scf accuracy    <       0.00004559 Ry

     iteration # 25     ecut=    20.00 Ry     beta=0.50
     Davidson diagonalization with overlap
     ethr =  2.17E-07,  avg # of iterations =  5.6

     total cpu time spent up to now is       30.1 secs

     total energy              =     -28.92859815 Ry
     Harris-Foulkes estimate   =     -28.92860052 Ry
     estimated scf accuracy    <       0.00003323 Ry

     iteration # 26     ecut=    20.00 Ry     beta=0.50
     Davidson diagonalization with overlap
     ethr =  1.58E-07,  avg # of iterations =  1.0

     total cpu time spent up to now is       30.7 secs

     total energy              =     -28.92859324 Ry
     Harris-Foulkes estimate   =     -28.92859919 Ry
     estimated scf accuracy    <       0.00001782 Ry

     iteration # 27     ecut=    20.00 Ry     beta=0.50
     Davidson diagonalization with overlap
     ethr =  8.48E-08,  avg # of iterations =  3.5

     total cpu time spent up to now is       31.6 secs

     total energy              =     -28.92859648 Ry
     Harris-Foulkes estimate   =     -28.92859767 Ry
     estimated scf accuracy    <       0.00000219 Ry

     iteration # 28     ecut=    20.00 Ry     beta=0.50
     Davidson diagonalization with overlap
     c_bands:  1 eigenvalues not converged
     c_bands:  1 eigenvalues not converged
     c_bands:  1 eigenvalues not converged
     ethr =  1.04E-08,  avg # of iterations =  8.6

     total cpu time spent up to now is       32.9 secs

     total energy              =     -28.92859783 Ry
     Harris-Foulkes estimate   =     -28.92859873 Ry
     estimated scf accuracy    <       0.00000634 Ry

     iteration # 29     ecut=    20.00 Ry     beta=0.50
     Davidson diagonalization with overlap
     ethr =  1.04E-08,  avg # of iterations =  1.0

     total cpu time spent up to now is       33.4 secs

     total energy              =     -28.92859775 Ry
     Harris-Foulkes estimate   =     -28.92859803 Ry
     estimated scf accuracy    <       0.00000158 Ry

     iteration # 30     ecut=    20.00 Ry     beta=0.50
     Davidson diagonalization with overlap
     ethr =  7.55E-09,  avg # of iterations =  2.4

     total cpu time spent up to now is       34.0 secs

     End of self-consistent calculation

          k = 0.0000 0.0000 0.0000 (  2893 PWs)   bands (ev):

   -14.9027 -14.5428 -13.9481 -13.1144 -12.0397 -10.7832  -9.2886  -7.8136
    -5.9943  -4.1501  -2.3616  -0.9445  -0.2276   0.1458   0.2016

          k = 0.0000 0.2041 0.0000 (  2891 PWs)   bands (ev):

   -14.5286 -14.1695 -13.5761 -12.7441 -11.6714 -10.4171  -8.9228  -7.4620
    -5.6436  -3.8061  -2.0244  -0.5996   0.1379   0.5204   0.5660

          k = 0.0000 0.4082 0.0000 (  2909 PWs)   bands (ev):

   -13.4119 -13.0551 -12.4655 -11.6389 -10.5729  -9.3267  -7.8387  -6.4133
    -4.6243  -2.9139  -1.9320  -1.4640  -1.0512  -0.7022  -0.2131

          k = 0.0000 0.6124 0.0000 (  2936 PWs)   bands (ev):

   -11.5689 -11.2163 -10.6340  -9.8183  -8.7689  -7.5544  -6.2130  -5.8368
    -5.4473  -4.8453  -4.4686  -4.0024  -3.0119  -2.7172  -1.8262

          k = 0.0000-0.8165 0.0000 (  2982 PWs)   bands (ev):

    -9.0366  -9.0256  -8.7198  -8.6551  -8.1515  -8.0914  -7.3774  -7.3321
    -6.4850  -5.9240  -4.9542  -4.8499  -3.5334  -3.3967  -2.2568

          k = 0.1768-0.1021 0.0000 (  2891 PWs)   bands (ev):

   -14.5286 -14.1695 -13.5761 -12.7441 -11.6714 -10.4171  -8.9228  -7.4620
    -5.6436  -3.8061  -2.0244  -0.5996   0.1379   0.5204   0.5660

          k = 0.1768 0.1021 0.0000 (  2891 PWs)   bands (ev):

   -14.5286 -14.1695 -13.5761 -12.7441 -11.6714 -10.4171  -8.9228  -7.4620
    -5.6436  -3.8061  -2.0244  -0.5996   0.1379   0.5204   0.5660

          k = 0.1768 0.3062 0.0000 (  2894 PWs)   bands (ev):

   -13.7832 -13.4257 -12.8348 -12.0063 -10.9379  -9.6887  -8.1973  -6.7610
    -4.9529  -3.1445  -1.4258  -0.1121   0.5393   0.7544   0.7958

          k = 0.1768 0.5103 0.0000 (  2934 PWs)   bands (ev):

   -12.3033 -11.9490 -11.3635 -10.5429  -9.4851  -8.2508  -6.7843  -5.3921
    -3.9734  -3.5658  -3.1059  -2.6577  -2.0081  -1.6936  -1.0277

          k = 0.1768-0.9186 0.0000 (  2943 PWs)   bands (ev):

   -10.1113  -9.7630  -9.1886  -8.3883  -7.4058  -7.2163  -6.9120  -6.4992
    -6.0769  -5.3767  -4.4882  -4.3516  -3.2891  -3.1683  -1.9838

          k = 0.1768-0.7144 0.0000 (  2943 PWs)   bands (ev):

   -10.1113  -9.7630  -9.1886  -8.3883  -7.4058  -7.2163  -6.9120  -6.4992
    -6.0769  -5.3767  -4.4882  -4.3516  -3.2891  -3.1683  -1.9838

          k = 0.1768-0.5103 0.0000 (  2934 PWs)   bands (ev):

   -12.3033 -11.9490 -11.3635 -10.5429  -9.4851  -8.2508  -6.7843  -5.3921
    -3.9734  -3.5658  -3.1059  -2.6577  -2.0081  -1.6936  -1.0277

          k = 0.1768-0.3062 0.0000 (  2894 PWs)   bands (ev):

   -13.7832 -13.4257 -12.8348 -12.0063 -10.9379  -9.6887  -8.1973  -6.7610
    -4.9529  -3.1445  -1.4258  -0.1121   0.5393   0.7544   0.7958

          k = 0.3536-0.2041 0.0000 (  2909 PWs)   bands (ev):

   -13.4119 -13.0551 -12.4655 -11.6389 -10.5729  -9.3267  -7.8387  -6.4133
    -4.6243  -2.9139  -1.9320  -1.4640  -1.0512  -0.7022  -0.2130

          k = 0.3536 0.0000 0.0000 (  2894 PWs)   bands (ev):

   -13.7832 -13.4257 -12.8348 -12.0063 -10.9379  -9.6887  -8.1973  -6.7610
    -4.9529  -3.1445  -1.4258  -0.1121   0.5393   0.7544   0.7958

          k = 0.3536 0.2041 0.0000 (  2909 PWs)   bands (ev):

   -13.4119 -13.0551 -12.4655 -11.6389 -10.5729  -9.3267  -7.8387  -6.4133
    -4.6243  -2.9139  -1.9320  -1.4640  -1.0512  -0.7022  -0.2130

          k = 0.3536 0.4082 0.0000 (  2934 PWs)   bands (ev):

   -12.3033 -11.9490 -11.3635 -10.5429  -9.4851  -8.2508  -6.7843  -5.3921
    -3.9734  -3.5658  -3.1059  -2.6577  -2.0081  -1.6936  -1.0277

          k = 0.3536-1.0206 0.0000 (  2964 PWs)   bands (ev):

   -10.4740 -10.1244  -9.5472  -8.7398  -7.7046  -6.5190  -5.2608  -4.8150
    -4.8048  -4.5767  -4.3261  -3.9018  -3.6066  -3.3476  -3.0948

          k = 0.3536-0.8165 0.0000 (  2968 PWs)   bands (ev):

    -7.9635  -7.9516  -7.6560  -7.5814  -7.0971  -7.0217  -6.3295  -6.2948
    -5.4783  -5.1947  -4.8795  -4.8385  -4.4201  -4.1808  -3.6083

          k = 0.3536-0.6124 0.0000 (  2964 PWs)   bands (ev):

   -10.4740 -10.1244  -9.5472  -8.7398  -7.7046  -6.5190  -5.2608  -4.8150
    -4.8048  -4.5767  -4.3261  -3.9018  -3.6066  -3.3476  -3.0948

          k = 0.3536-0.4082 0.0000 (  2934 PWs)   bands (ev):

   -12.3033 -11.9490 -11.3635 -10.5429  -9.4851  -8.2508  -6.7843  -5.3921
    -3.9734  -3.5658  -3.1059  -2.6577  -2.0081  -1.6936  -1.0277

          k = 0.5303-0.3062 0.0000 (  2936 PWs)   bands (ev):

   -11.5689 -11.2163 -10.6340  -9.8183  -8.7689  -7.5544  -6.2130  -5.8368
    -5.4473  -4.8453  -4.4686  -4.0024  -3.0119  -2.7172  -1.8262

          k = 0.5303-0.1021 0.0000 (  2934 PWs)   bands (ev):

   -12.3033 -11.9490 -11.3635 -10.5429  -9.4851  -8.2508  -6.7843  -5.3921
    -3.9734  -3.5658  -3.1059  -2.6577  -2.0081  -1.6936  -1.0277

          k = 0.5303 0.1021 0.0000 (  2934 PWs)   bands (ev):

   -12.3033 -11.9490 -11.3635 -10.5429  -9.4851  -8.2508  -6.7843  -5.3921
    -3.9734  -3.5658  -3.1059  -2.6577  -2.0081  -1.6936  -1.0277

          k = 0.5303 0.3062 0.0000 (  2936 PWs)   bands (ev):

   -11.5689 -11.2163 -10.6340  -9.8183  -8.7689  -7.5544  -6.2130  -5.8368
    -5.4473  -4.8453  -4.4686  -4.0024  -3.0119  -2.7172  -1.8262

          k = 0.5303-1.1227 0.0000 (  2943 PWs)   bands (ev):

   -10.1113  -9.7630  -9.1886  -8.3883  -7.4058  -7.2163  -6.9120  -6.4991
    -6.0769  -5.3767  -4.4882  -4.3516  -3.2891  -3.1683  -1.9838

          k = 0.5303-0.9186 0.0000 (  2968 PWs)   bands (ev):

    -7.9635  -7.9516  -7.6560  -7.5814  -7.0971  -7.0217  -6.3295  -6.2948
    -5.4783  -5.1947  -4.8795  -4.8385  -4.4201  -4.1808  -3.6083

          k = 0.5303-0.7144 0.0000 (  2968 PWs)   bands (ev):

    -7.9635  -7.9516  -7.6560  -7.5814  -7.0971  -7.0217  -6.3295  -6.2948
    -5.4783  -5.1947  -4.8795  -4.8385  -4.4201  -4.1808  -3.6083

          k = 0.5303-0.5103 0.0000 (  2943 PWs)   bands (ev):

   -10.1113  -9.7630  -9.1886  -8.3883  -7.4058  -7.2163  -6.9120  -6.4991
    -6.0769  -5.3767  -4.4882  -4.3516  -3.2891  -3.1683  -1.9838

          k =-0.7071 0.4082 0.0000 (  2982 PWs)   bands (ev):

    -9.0366  -9.0256  -8.7197  -8.6551  -8.1515  -8.0914  -7.3774  -7.3321
    -6.4850  -5.9240  -4.9542  -4.8499  -3.5334  -3.3967  -2.2568

          k =-0.7071 0.6124 0.0000 (  2943 PWs)   bands (ev):

   -10.1113  -9.7630  -9.1886  -8.3883  -7.4058  -7.2163  -6.9120  -6.4991
    -6.0769  -5.3767  -4.4882  -4.3516  -3.2891  -3.1683  -1.9838

          k =-0.7071 0.8165 0.0000 (  2964 PWs)   bands (ev):

   -10.4740 -10.1244  -9.5472  -8.7398  -7.7046  -6.5190  -5.2608  -4.8150
    -4.8048  -4.5767  -4.3261  -3.9018  -3.6066  -3.3476  -3.0948

          k =-0.7071 1.0206 0.0000 (  2943 PWs)   bands (ev):

   -10.1113  -9.7630  -9.1886  -8.3883  -7.4058  -7.2163  -6.9120  -6.4991
    -6.0769  -5.3767  -4.4882  -4.3516  -3.2891  -3.1683  -1.9838

          k =-0.7071-0.4082 0.0000 (  2982 PWs)   bands (ev):

    -9.0366  -9.0256  -8.7197  -8.6551  -8.1515  -8.0914  -7.3774  -7.3321
    -6.4850  -5.9240  -4.9542  -4.8499  -3.5334  -3.3967  -2.2568

     the Fermi energy is    -4.0086 ev

!    total energy              =     -28.92859749 Ry
     Harris-Foulkes estimate   =     -28.92859792 Ry
     estimated scf accuracy    <       0.00000013 Ry

     The total energy is the sum of the following terms:

     one-electron contribution =  -14454.46124113 Ry
     hartree contribution      =    7228.07645627 Ry
     xc contribution           =     -11.06490921 Ry
     ewald contribution        =    7208.51839567 Ry
     smearing contrib. (-TS)   =       0.00270090 Ry

     ESM Charge and Potential
     ========================

    z (A)      rho (e)      Avg v_hartree        Avg v_local  Avg v_hart+v_loc
                                   (eV/A)             (eV/A)            (eV/A)
    ==========================================================================
  -20.160      0.00000      14126.9428327     -14126.9338665         0.0089662
  -19.980      0.00000      17334.3635135     -17334.3524710         0.0110425
  -19.800      0.00000      19609.4490978     -19609.4365247         0.0125730
  -19.620      0.00000      20473.5883820     -20473.5753140         0.0130680
  -19.440      0.00000      20473.9803331     -20473.9671751         0.0131580
  -19.260      0.00000      20473.5077533     -20473.4947067         0.0130466
  -19.080      0.00000      20474.0576024     -20474.0444245         0.0131779
  -18.900      0.00000      20473.4343812     -20473.4213542         0.0130269
  -18.720      0.00000      20474.1265691     -20474.1133736         0.0131955
  -18.540      0.00000      20473.3702879     -20473.3572783         0.0130097
  -18.360      0.00000      20474.1853572     -20474.1721471         0.0132101
  -18.180      0.00000      20473.3171882     -20473.3041926         0.0129955
  -18.000      0.00000      20474.2324276     -20474.2192065         0.0132210
  -17.820      0.00000      20473.2764329     -20473.2634479         0.0129850
  -17.640      0.00000      20474.2666277     -20474.2533999         0.0132278
  -17.460      0.00000      20473.2489675     -20473.2359888         0.0129786
  -17.280      0.00000      20474.2872267     -20474.2739968         0.0132299
  -17.100      0.00000      20473.2353030     -20473.2223261         0.0129769
  -16.920      0.00000      20474.2939364     -20474.2807094         0.0132269
  -16.740      0.00000      20473.2355037     -20473.2225236         0.0129801
  -16.560      0.00000      20474.2869158     -20474.2736973         0.0132185
  -16.380      0.00000      20473.2491895     -20473.2362009         0.0129886
  -16.200      0.00000      20474.2667611     -20474.2535567         0.0132045
  -16.020      0.00000      20473.2755548     -20473.2625523         0.0130025
  -15.840      0.00000      20474.2344795     -20474.2212949         0.0131846
  -15.660      0.00000      20473.3134010     -20473.3003791         0.0130218
  -15.480      0.00000      20474.1914491     -20474.1782902         0.0131590
  -15.300      0.00000      20473.3611832     -20473.3481367         0.0130465
  -15.120      0.00000      20474.1393666     -20474.1262390         0.0131276
  -14.940      0.00000      20473.4170687     -20473.4039924         0.0130763
  -14.760      0.00000      20474.0801836     -20474.0670930         0.0130906
  -14.580      0.00000      20473.4790042     -20473.4658938         0.0131105
  -14.400      0.00000      20474.0160353     -20474.0029870         0.0130483
  -14.220      0.00000      20473.5447909     -20473.5316428         0.0131481
  -14.040      0.00000      20473.9491630     -20473.9361624         0.0130006
  -13.860      0.00000      20473.6121625     -20473.5989749         0.0131876
  -13.680      0.00000      20473.8818335     -20473.8688867         0.0129468
  -13.500      0.00000      20473.6788649     -20473.6656394         0.0132256
  -13.320      0.00000      20473.8162587     -20473.8033741         0.0128846
  -13.140      0.00000      20473.7427336     -20473.7294780         0.0132556
  -12.960      0.00000      20473.7545159     -20473.7417086         0.0128073
  -12.780      0.00000      20473.8017627     -20473.7884987         0.0132640
  -12.600      0.00001      20473.6984709     -20473.6857730         0.0126978
  -12.420      0.00001      20473.8541633     -20473.8409434         0.0132199
  -12.240      0.00001      20473.6497005     -20473.6371865         0.0125139
  -12.060      0.00002      20473.8983964     -20473.8853421         0.0130543
  -11.880      0.00004      20473.6094040     -20473.5972495         0.0121544
  -11.700      0.00005      20473.9331631     -20473.9205659         0.0125972
  -11.520      0.00009      20473.5782741     -20473.5669147         0.0113594
  -11.340      0.00013      20473.9572936     -20473.9458573         0.0114363
  -11.160      0.00021      20473.5562475     -20473.5467487         0.0094988
  -10.980      0.00033      20473.9694181     -20473.9608462         0.0085719
  -10.800      0.00052      20473.5419384     -20473.5369242         0.0050141
  -10.620      0.00081      20473.9670864     -20473.9655572         0.0015291
  -10.440      0.00128      20473.5312618     -20473.5372208        -0.0059590
  -10.260      0.00201      20473.9446024     -20473.9604018        -0.0157993
  -10.080      0.00317      20473.5140272     -20473.5470391        -0.0330120
   -9.900      0.00500      20473.8875474     -20473.9461599        -0.0586126
   -9.720      0.00789      20473.4653843     -20473.5654215        -0.1000371
   -9.540      0.01247      20473.7592391     -20473.9239582        -0.1647191
   -9.360      0.01966      20473.3244570     -20473.5910765        -0.2666195
   -9.180      0.03090      20473.4668145     -20473.8952701        -0.4284557
   -9.000      0.04835      20472.9416313     -20473.6222839        -0.6806526
   -8.820      0.07493      20472.7802927     -20473.8616602        -1.0813675
   -8.640      0.11422      20471.9570353     -20473.6559555        -1.6989201
   -8.460      0.17015      20471.1567831     -20473.8110291        -2.6542460
   -8.280      0.24609      20469.5629674     -20473.3945646        -3.8315972
   -8.100      0.34178      20467.4473972     -20473.3211449        -5.8737477
   -7.920      0.44862      20464.1920814     -20474.0742442        -9.8821627
   -7.740      0.54894      20459.6661580     -20475.4645272       -15.7983692
   -7.560      0.62466      20453.5562137     -20476.1662758       -22.6100621
   -7.380      0.66866      20445.5085702     -20474.6474856       -29.1389154
   -7.200      0.68606      20435.6744811     -20469.6780493       -34.0035682
   -7.020      0.68703      20423.5737011     -20459.4590646       -35.8853635
   -6.840      0.68226      20409.7636706     -20444.0264418       -34.2627712
   -6.660      0.68013      20393.5657198     -20423.1570371       -29.5913172
   -6.480      0.68103      20375.7940138     -20399.0046177       -23.2106039
   -6.300      0.67768      20355.5338516     -20372.1640734       -16.6302218
   -6.120      0.66732      20333.8035749     -20345.0478460       -11.2442712
   -5.940      0.65910      20309.5432324     -20317.6081200        -8.0648876
   -5.760      0.66409      20283.9286671     -20291.8805896        -7.9519226
   -5.580      0.68094      20255.7390478     -20266.6844932       -10.9454454
   -5.400      0.69550      20226.1718283     -20242.4059693       -16.2341410
   -5.220      0.69573      20193.9219772     -20216.7447020       -22.8227248
   -5.040      0.68381      20160.2600732     -20189.5882849       -29.3282117
   -4.860      0.67093      20123.9549205     -20158.1592553       -34.2043347
   -4.680      0.66503      20086.2826026     -20122.3335757       -36.0509730
   -4.500      0.66830      20046.0576450     -20080.3866737       -34.3290286
   -4.320      0.67947      20004.4214958     -20033.9525071       -29.5310113
   -4.140      0.69149      19960.2567700     -19983.2893467       -23.0325768
   -3.960      0.69339      19914.5402395     -19930.9218153       -16.3815758
   -3.780      0.68227      19866.3459009     -19877.3241046       -10.9782037
   -3.600      0.66923      19816.5266109     -19824.3635344        -7.8369235
   -3.420      0.66777      19764.4014850     -19772.1958924        -7.7944074
   -3.240      0.67860      19710.5756313     -19721.4422743       -10.8666430
   -3.060      0.68930      19654.5404498     -19670.7561439       -16.2156941
   -2.880      0.68902      19596.6212805     -19619.4595392       -22.8382587
   -2.700      0.68013      19536.5934803     -19565.9355491       -29.3420688
   -2.520      0.67239      19474.5743735     -19508.7681354       -34.1937619
   -2.340      0.67106      19410.6231896     -19446.6314027       -36.0082131
   -2.160      0.67593      19344.5760562     -19378.8488525       -34.2727963
   -1.980      0.68500      19276.7145400     -19306.2054071       -29.4908671
   -1.800      0.69219      19206.5944728     -19229.6347048       -23.0402320
   -1.620      0.68851      19134.7338701     -19151.1859353       -16.4520651
   -1.440      0.67299      19060.4960212     -19071.6061402       -11.1101190
   -1.260      0.65789      18984.6743012     -18992.6862646        -8.0119634
   -1.080      0.65699      18906.4651623     -18914.4514105        -7.9862482
   -0.900      0.67075      18826.7989426     -18837.8370030       -11.0380603
   -0.720      0.68620      18744.6386144     -18760.9734367       -16.3348224
   -0.540      0.69153      18661.0015584     -18683.8863175       -22.8847591
   -0.360      0.68759      18574.7646666     -18604.0730558       -29.3083891
   -0.180      0.68249      18487.0784635     -18521.1657409       -34.0872774
    0.000      0.68066      18396.7954908     -18432.6426946       -35.8472038
    0.180      0.68250      18305.0889824     -18339.1749668       -34.0859844
    0.360      0.68760      18210.7931847     -18240.0990023       -29.3058176
    0.540      0.69154      18115.0331401     -18137.9140788       -22.8809387
    0.720      0.68622      18016.6953661     -18033.0251633       -16.3297972
    0.900      0.67077      17916.8516610     -17927.8835473       -11.0318863
    1.080      0.65701      17814.5496030     -17822.5285911        -7.9789881
    1.260      0.65791      17710.7483086     -17718.7519929        -8.0036843
    1.440      0.67302      17604.6074115     -17615.7083031       -11.1008917
    1.620      0.68854      17496.8294165     -17513.2713852       -16.4419687
    1.800      0.69223      17386.7318923     -17409.7612522       -23.0293599
    1.980      0.68504      17274.8318975     -17304.3112304       -29.4793329
    2.160      0.67598      17160.7383500     -17194.9990855       -34.2607355
    2.340      0.67111      17044.7625573     -17080.7583377       -35.9957805
    2.520      0.67245      16926.7601583     -16960.9412840       -34.1811257
    2.700      0.68019      16806.7549848     -16836.0843896       -29.3294048
    2.880      0.68908      16684.8290500     -16707.6547945       -22.8257446
    3.060      0.68936      16560.7241995     -16576.9277052       -16.2035058
    3.240      0.67866      16434.8038724     -16445.6588232       -10.8549507
    3.420      0.66782      16306.6076043     -16314.3909766        -7.7833723
    3.600      0.66927      16176.7738996     -16184.6005945        -7.8266949
    3.780      0.68231      16044.5745488     -16055.5434659       -10.9689171
    3.960      0.69342      15910.8053186     -15927.1786688       -16.3733502
    4.140      0.69152      15774.5081497     -15797.5336585       -23.0255088
    4.320      0.67949      15636.7033632     -15666.2285326       -29.5251694
    4.500      0.66830      15496.3320481     -15530.6564984       -34.3244503
    4.680      0.66502      15354.5806099     -15390.6282759       -36.0476660
    4.860      0.67091      15210.2527376     -15244.4550191       -34.2022815
    5.040      0.68379      15064.5739349     -15093.9013101       -29.3273752
    5.220      0.69570      14916.2436209     -14939.0666742       -22.8230533
    5.400      0.69547      14766.5015613     -14782.7371343       -16.2355730
    5.580      0.68091      14614.0848573     -14625.0327719       -10.9479146
    5.760      0.66407      14460.2745219     -14468.2298851        -7.9553632
    5.940      0.65908      14303.9133863     -14311.9826250        -8.0692388
    6.120      0.66731      14146.1659607     -14157.4154417       -11.2494810
    6.300      0.67767      13985.9282970     -14002.5645461       -16.6362490
    6.480      0.68102      13824.1734409     -13847.3908594       -23.2174185
    6.660      0.68013      13659.9841480     -13689.5830472       -29.5988992
    6.840      0.68226      13494.1607336     -13528.4318406       -34.2711070
    7.020      0.68702      13326.0155864     -13361.9100248       -35.8944384
    7.200      0.68604      13156.0899065     -13190.1032637       -34.0133572
    7.380      0.66864      12983.9732986     -13013.1226720       -29.1493734
    7.560      0.62462      12809.9909690     -12832.6120883       -22.6211193
    7.740      0.54890      12634.1531723     -12649.9631060       -15.8099337
    7.920      0.44859      12456.6473995     -12466.5415320        -9.8941326
    8.100      0.34175      12277.9561772     -12283.8422037        -5.8860265
    8.280      0.24606      12098.0401617     -12101.8842664        -3.8441047
    8.460      0.17013      11917.6866926     -11920.3536124        -2.6669198
    8.640      0.11421      11736.4573210     -11738.1690344        -1.7117135
    8.820      0.07492      11555.3305606     -11556.4248066        -1.0942459
    9.000      0.04834      11373.4660984     -11374.1596900        -0.6935916
    9.180      0.03090      11192.0366125     -11192.4780506        -0.4414381
    9.360      0.01966      11009.8740748     -11010.1537081        -0.2796334
    9.540      0.01246      10828.3477586     -10828.5255143        -0.1777557
    9.720      0.00789      10646.0409977     -10646.1540884        -0.1130907
    9.900      0.00500      10464.4940605     -10464.5657393        -0.0716788
   10.080      0.00317      10282.1163404     -10282.1624282        -0.0460877
   10.260      0.00201      10100.5685080     -10100.5973904        -0.0288824
   10.440      0.00128       9918.1608183      -9918.1798660        -0.0190476
   10.620      0.00081       9736.6079434      -9736.6195073        -0.0115639
   10.800      0.00052       9554.1990995      -9554.2071819        -0.0080825
   10.980      0.00033       9372.6269700      -9372.6314976        -0.0045275
   11.160      0.00021       9190.2411763      -9190.2447792        -0.0036028
   11.340      0.00013       9008.6314854      -9008.6331525        -0.0016670
   11.520      0.00009       8826.2909253      -8826.2926707        -0.0017453
   11.700      0.00005       8644.6241490      -8644.6246575        -0.0005086
   11.880      0.00004       8462.3495210      -8462.3504730        -0.0009520
   12.060      0.00002       8280.6065400      -8280.6065926        -0.0000527
   12.240      0.00001       8098.4168193      -8098.4174127        -0.0005934
   12.420      0.00001       7916.5800293      -7916.5799170         0.0001123
   12.600      0.00001       7734.4919327      -7734.4923425        -0.0004098
   12.780      0.00000       7552.5461013      -7552.5459452         0.0001562
   12.960      0.00000       7370.5734865      -7370.5737870        -0.0003005
   13.140      0.00000       7188.5064572      -7188.5063095         0.0001478
   13.320      0.00000       7006.6597553      -7006.6599786        -0.0002233
   13.500      0.00000       6824.4630190      -6824.4629014         0.0001177
   13.680      0.00000       6642.7487571      -6642.7489181        -0.0001611
   13.860      0.00000       6460.4178905      -6460.4178108         0.0000797
   14.040      0.00000       6278.8383354      -6278.8384427        -0.0001073
   14.220      0.00000       6096.3732955      -6096.3732552         0.0000403
   14.400      0.00000       5914.9262401      -5914.9262996        -0.0000595
   14.580      0.00000       5732.3315052      -5732.3315026         0.0000026
   14.760      0.00000       5551.0102084      -5551.0102256        -0.0000172
   14.940      0.00000       5368.2947600      -5368.2947916        -0.0000316
   15.120      0.00000       5187.0880464      -5187.0880266         0.0000198
   15.300      0.00000       5004.2651904      -5004.2652517        -0.0000613
   15.480      0.00000       4823.1577082      -4823.1576570         0.0000512
   15.660      0.00000       4640.2447401      -4640.2448261        -0.0000860
   15.840      0.00000       4459.2173707      -4459.2172938         0.0000768
   16.020      0.00000       4276.2350954      -4276.2352007        -0.0001054
   16.200      0.00000       4095.2655009      -4095.2654043         0.0000966
   16.380      0.00000       3912.2376215      -3912.2377408        -0.0001193
   16.560      0.00000       3731.3009142      -3731.3008035         0.0001107
   16.740      0.00000       3548.2533112      -3548.2534390        -0.0001277
   16.920      0.00000       3367.3228201      -3367.3227010         0.0001191
   17.100      0.00000       3184.2827448      -3184.2828757        -0.0001310
   17.280      0.00000       3003.3308547      -3003.3307326         0.0001220
   17.460      0.00000       2820.3260650      -2820.3261942        -0.0001292
   17.640      0.00000       2639.3250988      -2639.3249789         0.0001199
   17.820      0.00000       2456.3829669      -2456.3830898        -0.0001229
   18.000      0.00000       2275.3060801      -2275.3059669         0.0001132
   18.180      0.00000       2092.4527038      -2092.4528161        -0.0001123
   18.360      0.00000       1911.2747593      -1911.2746571         0.0001022
   18.540      0.00000       1728.5341079      -1728.5342061        -0.0000982
   18.720      0.00000       1547.2325019      -1547.2324143         0.0000876
   18.900      0.00000       1364.6256269      -1364.6257079        -0.0000809
   19.080      0.00000       1183.1810348      -1183.1809648         0.0000700
   19.260      0.00000       1000.7253734      -1000.7254346        -0.0000613
   19.440      0.00000        819.1223905       -819.1223405         0.0000500
   19.620      0.00000       1524.0276136      -1524.0270902         0.0005234
   19.800      0.00000       3685.3637779      -3685.3617015         0.0020764
   19.980      0.00000       6824.5450767      -6824.5409466         0.0041301
   20.160      0.00000      10464.3663987     -10464.3598390         0.0065597
 

     convergence has been achieved in  30 iterations

     Forces acting on atoms (Ry/au):

     atom    1 type  1   force =    -0.00000007    0.00000011   -0.00217240
     atom    2 type  1   force =    -0.00000001   -0.00000022    0.00703747
     atom    3 type  1   force =     0.00000012    0.00000021   -0.00534890
     atom    4 type  1   force =     0.00000001   -0.00000005   -0.00000682
     atom    5 type  1   force =    -0.00000010   -0.00000021    0.00537671
     atom    6 type  1   force =     0.00000004    0.00000026   -0.00708532
     atom    7 type  1   force =     0.00000001   -0.00000010    0.00219926

     Total force =     0.012915     Total SCF correction =     0.000558

     Writing output data file Al111.save
 
     init_run     :      0.40s CPU      0.47s WALL (       1 calls)
     electrons    :     31.59s CPU     33.42s WALL (       1 calls)
     forces       :      0.09s CPU      0.09s WALL (       1 calls)

     Called by init_run:
     wfcinit      :      0.32s CPU      0.33s WALL (       1 calls)
     potinit      :      0.02s CPU      0.03s WALL (       1 calls)

     Called by electrons:
     c_bands      :     24.73s CPU     25.65s WALL (      30 calls)
     sum_band     :      6.25s CPU      6.47s WALL (      30 calls)
     v_of_rho     :      0.15s CPU      0.16s WALL (      31 calls)
     mix_rho      :      0.04s CPU      0.04s WALL (      30 calls)

     Called by c_bands:
     init_us_2    :      0.34s CPU      0.31s WALL (    2108 calls)
     cegterg      :     23.91s CPU     24.64s WALL (    1020 calls)

     Called by *egterg:
     h_psi        :     17.19s CPU     17.60s WALL (    5448 calls)
     g_psi        :      0.19s CPU      0.21s WALL (    4394 calls)
     cdiaghg      :      4.11s CPU      4.12s WALL (    5414 calls)

     Called by h_psi:
     add_vuspsi   :      0.81s CPU      0.80s WALL (    5448 calls)

     General routines
     calbec       :      1.28s CPU      1.25s WALL (    5482 calls)
     fft          :      0.05s CPU      0.06s WALL (     344 calls)
     fftw         :     20.11s CPU     20.62s WALL (  104458 calls)
     davcio       :      0.02s CPU      0.29s WALL (    3128 calls)
 
     Parallel routines
     fft_scatter  :     12.56s CPU     12.86s WALL (  104802 calls)
 
     PWSCF        :    32.22s CPU        34.92s WALL

 
   This run was terminated on:  16: 8:32  11Aug2011            

=------------------------------------------------------------------------------=
   JOB DONE.
=------------------------------------------------------------------------------=
