
     Program PWSCF v.4.3.2      starts on 11Aug2011 at 16: 9:35 

     This program is part of the open-source Quantum ESPRESSO suite
     for quantum simulation of materials; please cite
         "P. Giannozzi et al., J. Phys.:Condens. Matter 21 395502 (2009);
          URL http://www.quantum-espresso.org", 
     in publications or presentations arising from this work. More details at
     http://www.quantum-espresso.org/quote.php

     Parallel version (MPI), running on    12 processors
     R & G space division:  proc/pool =   12

     Current dimensions of program PWSCF are:
     Max number of different atomic species (ntypx) = 10
     Max number of k-points (npk) =  40000
     Max angular momentum in pseudopotentials (lmaxx) =  3
     Waiting for input...
     Reading input from stdin

     Subspace diagonalization in iterative solution of the eigenvalue problem:
     a serial algorithm will be used

 
     Parallelization info
     --------------------
     sticks:   dense  smooth     PW     G-vecs:    dense   smooth      PW
     Min          13      13      5                 1955     1955     435
     Max          14      14      6                 1996     1996     467
     Sum         163     163     61                23647    23647    5473
 


     bravais-lattice index     =            0
     lattice parameter (alat)  =       7.6534  a.u.
     unit-cell volume          =    1941.1667 (a.u.)^3
     number of atoms/cell      =            7
     number of atomic types    =            1
     number of electrons       =        21.00
     number of Kohn-Sham states=           14
     kinetic-energy cutoff     =      20.0000  Ry
     charge density cutoff     =      80.0000  Ry
     convergence threshold     =      1.0E-06
     mixing beta               =       0.5000
     number of iterations used =            8  plain     mixing
     Exchange-correlation      =  SLA  PW   PBE  PBE ( 1 4 3 4 0)
     EXX-fraction              =        0.00

     Effective Screening Medium Method
     =================================
     field strength (Ry/a.u.)         =       0.00 
     ESM offset from cell edge (a.u.) =       0.00 
     grid points for fit at edges     =          4 
     Boundary Conditions: Vacuum-Slab-Metal
 

     celldm(1)=   7.653394  celldm(2)=   0.000000  celldm(3)=   0.000000
     celldm(4)=   0.000000  celldm(5)=   0.000000  celldm(6)=   0.000000

     crystal axes: (cart. coord. in units of alat)
               a(1) = (   0.707107   0.000000   0.000000 )  
               a(2) = (   0.353553   0.612372   0.000000 )  
               a(3) = (   0.000000   0.000000  10.000000 )  

     reciprocal axes: (cart. coord. in units 2 pi/alat)
               b(1) = (  1.414214 -0.816497  0.000000 )  
               b(2) = (  0.000000  1.632993  0.000000 )  
               b(3) = (  0.000000  0.000000  0.100000 )  


     PseudoPot. # 1 for Al read from file:
     /p/lscratcha/wood37/data/esm_code_081011/espresso/pseudo/Al.pbe-rrkj.UPF
     MD5 check sum: b5320f8fdc07ab0d74f109f4aa58256b
     Pseudo is Norm-conserving, Zval =  3.0
     Generated by new atomic code, or converted to UPF format
     Using radial grid of  879 points,  4 beta functions with: 
                l(1) =   0
                l(2) =   0
                l(3) =   1
                l(4) =   1

     atomic species   valence    mass     pseudopotential
        Al             3.00    26.98154     Al( 1.00)

     No symmetry found

   Cartesian axes

     site n.     atom                  positions (alat units)
         1           Al  tau(   1) = (   0.0000000   0.0000000  -1.7320512  )
         2           Al  tau(   2) = (   0.0000000   0.4082492  -1.1547008  )
         3           Al  tau(   3) = (   0.3535529   0.2041234  -0.5773504  )
         4           Al  tau(   4) = (   0.0000000   0.0000000   0.0000000  )
         5           Al  tau(   5) = (   0.0000000   0.4082492   0.5773504  )
         6           Al  tau(   6) = (   0.3535529   0.2041234   1.1547008  )
         7           Al  tau(   7) = (   0.0000000   0.0000000   1.7320512  )

     number of k points=    34  Methfessel-Paxton smearing, width (Ry)=  0.0500
                       cart. coord. in units 2pi/alat
        k(    1) = (   0.0000000   0.0000000   0.0000000), wk =   0.0312500
        k(    2) = (   0.0000000   0.2041241   0.0000000), wk =   0.0625000
        k(    3) = (   0.0000000   0.4082483   0.0000000), wk =   0.0625000
        k(    4) = (   0.0000000   0.6123724   0.0000000), wk =   0.0625000
        k(    5) = (   0.0000000  -0.8164966   0.0000000), wk =   0.0312500
        k(    6) = (   0.1767767  -0.1020621   0.0000000), wk =   0.0625000
        k(    7) = (   0.1767767   0.1020621   0.0000000), wk =   0.0625000
        k(    8) = (   0.1767767   0.3061862   0.0000000), wk =   0.0625000
        k(    9) = (   0.1767767   0.5103104   0.0000000), wk =   0.0625000
        k(   10) = (   0.1767767  -0.9185587   0.0000000), wk =   0.0625000
        k(   11) = (   0.1767767  -0.7144345   0.0000000), wk =   0.0625000
        k(   12) = (   0.1767767  -0.5103104   0.0000000), wk =   0.0625000
        k(   13) = (   0.1767767  -0.3061862   0.0000000), wk =   0.0625000
        k(   14) = (   0.3535534  -0.2041241   0.0000000), wk =   0.0625000
        k(   15) = (   0.3535534   0.0000000   0.0000000), wk =   0.0625000
        k(   16) = (   0.3535534   0.2041241   0.0000000), wk =   0.0625000
        k(   17) = (   0.3535534   0.4082483   0.0000000), wk =   0.0625000
        k(   18) = (   0.3535534  -1.0206207   0.0000000), wk =   0.0625000
        k(   19) = (   0.3535534  -0.8164966   0.0000000), wk =   0.0625000
        k(   20) = (   0.3535534  -0.6123724   0.0000000), wk =   0.0625000
        k(   21) = (   0.3535534  -0.4082483   0.0000000), wk =   0.0625000
        k(   22) = (   0.5303301  -0.3061862   0.0000000), wk =   0.0625000
        k(   23) = (   0.5303301  -0.1020621   0.0000000), wk =   0.0625000
        k(   24) = (   0.5303301   0.1020621   0.0000000), wk =   0.0625000
        k(   25) = (   0.5303301   0.3061862   0.0000000), wk =   0.0625000
        k(   26) = (   0.5303301  -1.1226828   0.0000000), wk =   0.0625000
        k(   27) = (   0.5303301  -0.9185587   0.0000000), wk =   0.0625000
        k(   28) = (   0.5303301  -0.7144345   0.0000000), wk =   0.0625000
        k(   29) = (   0.5303301  -0.5103104   0.0000000), wk =   0.0625000
        k(   30) = (  -0.7071068   0.4082483   0.0000000), wk =   0.0312500
        k(   31) = (  -0.7071068   0.6123724   0.0000000), wk =   0.0625000
        k(   32) = (  -0.7071068   0.8164966   0.0000000), wk =   0.0625000
        k(   33) = (  -0.7071068   1.0206207   0.0000000), wk =   0.0625000
        k(   34) = (  -0.7071068  -0.4082483   0.0000000), wk =   0.0312500

     Dense  grid:    23647 G-vectors     FFT dimensions: (  15,  15, 225)

     Largest allocated arrays     est. size (Mb)     dimensions
        Kohn-Sham Wavefunctions         0.06 Mb     (    264,   14)
        NL pseudopotentials             0.23 Mb     (    264,   56)
        Each V/rho on FFT grid          0.07 Mb     (   4275)
        Each G-vector array             0.01 Mb     (   1963)
        G-vector shells                 0.01 Mb     (    963)
     Largest temporary arrays     est. size (Mb)     dimensions
        Auxiliary wavefunctions         0.23 Mb     (    264,   56)
        Each subspace H/S matrix        0.05 Mb     (  56,  56)
        Each <psi_i|beta_j> matrix      0.01 Mb     (     56,   14)
        Arrays for rho mixing           0.52 Mb     (   4275,   8)

     Initial potential from superposition of free atoms

     starting charge   20.98187, renormalised to   20.99500

     negative rho (up, down):  0.215E-04 0.000E+00
     Starting wfc are   28 atomic wfcs

     total cpu time spent up to now is        0.6 secs

     per-process dynamical memory:    18.5 Mb

     Self-consistent Calculation

     iteration #  1     ecut=    20.00 Ry     beta=0.50
     Davidson diagonalization with overlap
     ethr =  1.00E-02,  avg # of iterations =  4.0

     negative rho (up, down):  0.429E-05 0.000E+00

     total cpu time spent up to now is        1.5 secs

     total energy              =     -27.48484042 Ry
     Harris-Foulkes estimate   =     -28.90463574 Ry
     estimated scf accuracy    <       1.50359155 Ry

     iteration #  2     ecut=    20.00 Ry     beta=0.50
     Davidson diagonalization with overlap
     c_bands:  2 eigenvalues not converged
     c_bands:  4 eigenvalues not converged
     c_bands:  5 eigenvalues not converged
     c_bands:  4 eigenvalues not converged
     c_bands:  2 eigenvalues not converged
     c_bands:  4 eigenvalues not converged
     c_bands:  4 eigenvalues not converged
     c_bands:  2 eigenvalues not converged
     c_bands:  4 eigenvalues not converged
     c_bands:  2 eigenvalues not converged
     c_bands:  4 eigenvalues not converged
     c_bands:  2 eigenvalues not converged
     c_bands:  2 eigenvalues not converged
     c_bands:  2 eigenvalues not converged
     c_bands:  4 eigenvalues not converged
     c_bands:  2 eigenvalues not converged
     c_bands:  2 eigenvalues not converged
     c_bands:  4 eigenvalues not converged
     c_bands:  4 eigenvalues not converged
     c_bands:  4 eigenvalues not converged
     c_bands:  5 eigenvalues not converged
     c_bands:  4 eigenvalues not converged
     c_bands:  4 eigenvalues not converged
     c_bands:  5 eigenvalues not converged
     ethr =  7.16E-03,  avg # of iterations = 24.6

     negative rho (up, down):  0.131E-05 0.000E+00

     total cpu time spent up to now is        5.5 secs

     total energy              =      -5.83283120 Ry
     Harris-Foulkes estimate   =     -66.94041070 Ry
     estimated scf accuracy    <    1102.05453305 Ry

     iteration #  3     ecut=    20.00 Ry     beta=0.50
     Davidson diagonalization with overlap
     c_bands:  3 eigenvalues not converged
     c_bands:  3 eigenvalues not converged
     c_bands:  4 eigenvalues not converged
     c_bands:  5 eigenvalues not converged
     c_bands:  4 eigenvalues not converged
     c_bands:  4 eigenvalues not converged
     c_bands:  3 eigenvalues not converged
     c_bands:  4 eigenvalues not converged
     c_bands:  3 eigenvalues not converged
     c_bands:  2 eigenvalues not converged
     c_bands:  2 eigenvalues not converged
     c_bands:  4 eigenvalues not converged
     c_bands:  4 eigenvalues not converged
     c_bands:  5 eigenvalues not converged
     c_bands:  2 eigenvalues not converged
     c_bands:  5 eigenvalues not converged
     ethr =  7.16E-03,  avg # of iterations = 24.1

     total cpu time spent up to now is        9.6 secs

     total energy              =     -28.09477393 Ry
     Harris-Foulkes estimate   =     -29.88502924 Ry
     estimated scf accuracy    <      58.32338062 Ry

     iteration #  4     ecut=    20.00 Ry     beta=0.50
     Davidson diagonalization with overlap
     ethr =  7.16E-03,  avg # of iterations =  2.8

     total cpu time spent up to now is       10.9 secs

     total energy              =     -28.62488856 Ry
     Harris-Foulkes estimate   =     -29.06923068 Ry
     estimated scf accuracy    <       4.50541497 Ry

     iteration #  5     ecut=    20.00 Ry     beta=0.50
     Davidson diagonalization with overlap
     ethr =  7.16E-03,  avg # of iterations =  3.1

     negative rho (up, down):  0.154E-01 0.000E+00

     total cpu time spent up to now is       11.5 secs

     total energy              =     -29.00774662 Ry
     Harris-Foulkes estimate   =     -28.93435141 Ry
     estimated scf accuracy    <       8.29511452 Ry

     iteration #  6     ecut=    20.00 Ry     beta=0.50
     Davidson diagonalization with overlap
     ethr =  7.16E-03,  avg # of iterations =  1.0

     negative rho (up, down):  0.155E-01 0.000E+00

     total cpu time spent up to now is       12.0 secs

     total energy              =     -28.92410730 Ry
     Harris-Foulkes estimate   =     -29.08487791 Ry
     estimated scf accuracy    <      18.03910671 Ry

     iteration #  7     ecut=    20.00 Ry     beta=0.50
     Davidson diagonalization with overlap
     ethr =  7.16E-03,  avg # of iterations =  1.0

     negative rho (up, down):  0.490E-01 0.000E+00

     total cpu time spent up to now is       12.5 secs

     total energy              =     -29.24764148 Ry
     Harris-Foulkes estimate   =     -28.97449428 Ry
     estimated scf accuracy    <       9.61921183 Ry

     iteration #  8     ecut=    20.00 Ry     beta=0.50
     Davidson diagonalization with overlap
     ethr =  7.16E-03,  avg # of iterations =  1.3

     negative rho (up, down):  0.663E-01 0.000E+00

     total cpu time spent up to now is       13.1 secs

     total energy              =     -28.79150227 Ry
     Harris-Foulkes estimate   =     -29.51243870 Ry
     estimated scf accuracy    <      35.34441188 Ry

     iteration #  9     ecut=    20.00 Ry     beta=0.50
     Davidson diagonalization with overlap
     ethr =  7.16E-03,  avg # of iterations =  1.0

     negative rho (up, down):  0.376E-01 0.000E+00

     total cpu time spent up to now is       13.6 secs

     total energy              =     -28.80109449 Ry
     Harris-Foulkes estimate   =     -29.05414644 Ry
     estimated scf accuracy    <       2.48865870 Ry

     iteration # 10     ecut=    20.00 Ry     beta=0.50
     Davidson diagonalization with overlap
     ethr =  7.16E-03,  avg # of iterations =  1.6

     negative rho (up, down):  0.261E-01 0.000E+00

     total cpu time spent up to now is       14.2 secs

     total energy              =     -28.91717280 Ry
     Harris-Foulkes estimate   =     -28.93140032 Ry
     estimated scf accuracy    <       0.25352137 Ry

     iteration # 11     ecut=    20.00 Ry     beta=0.50
     Davidson diagonalization with overlap
     ethr =  1.21E-03,  avg # of iterations =  6.3

     negative rho (up, down):  0.913E-02 0.000E+00

     total cpu time spent up to now is       15.2 secs

     total energy              =     -28.88438220 Ry
     Harris-Foulkes estimate   =     -29.05885765 Ry
     estimated scf accuracy    <       1.50503083 Ry

     iteration # 12     ecut=    20.00 Ry     beta=0.50
     Davidson diagonalization with overlap
     c_bands:  1 eigenvalues not converged
     c_bands:  1 eigenvalues not converged
     c_bands:  1 eigenvalues not converged
     ethr =  1.21E-03,  avg # of iterations =  8.6

     negative rho (up, down):  0.195E-01 0.000E+00

     total cpu time spent up to now is       16.5 secs

     total energy              =     -28.86902898 Ry
     Harris-Foulkes estimate   =     -29.70442106 Ry
     estimated scf accuracy    <      49.98939078 Ry

     iteration # 13     ecut=    20.00 Ry     beta=0.50
     Davidson diagonalization with overlap
     ethr =  1.21E-03,  avg # of iterations =  3.1

     negative rho (up, down):  0.334E-01 0.000E+00

     total cpu time spent up to now is       17.2 secs

     total energy              =     -28.84730835 Ry
     Harris-Foulkes estimate   =     -29.07630532 Ry
     estimated scf accuracy    <      14.18388561 Ry

     iteration # 14     ecut=    20.00 Ry     beta=0.50
     Davidson diagonalization with overlap
     ethr =  1.21E-03,  avg # of iterations =  1.5

     negative rho (up, down):  0.320E-01 0.000E+00

     total cpu time spent up to now is       17.7 secs

     total energy              =     -28.77335308 Ry
     Harris-Foulkes estimate   =     -28.87423754 Ry
     estimated scf accuracy    <       8.37197634 Ry

     iteration # 15     ecut=    20.00 Ry     beta=0.50
     Davidson diagonalization with overlap
     ethr =  1.21E-03,  avg # of iterations =  2.5

     negative rho (up, down):  0.201E-02 0.000E+00

     total cpu time spent up to now is       18.4 secs

     total energy              =     -28.75342429 Ry
     Harris-Foulkes estimate   =     -28.80614413 Ry
     estimated scf accuracy    <       4.49593367 Ry

     iteration # 16     ecut=    20.00 Ry     beta=0.50
     Davidson diagonalization with overlap
     ethr =  1.21E-03,  avg # of iterations =  5.6

     negative rho (up, down):  0.317E-03 0.000E+00

     total cpu time spent up to now is       19.2 secs

     total energy              =     -28.83637397 Ry
     Harris-Foulkes estimate   =     -28.85798419 Ry
     estimated scf accuracy    <       0.29932903 Ry

     iteration # 17     ecut=    20.00 Ry     beta=0.50
     Davidson diagonalization with overlap
     ethr =  1.21E-03,  avg # of iterations =  4.5

     total cpu time spent up to now is       20.0 secs

     total energy              =     -28.87745440 Ry
     Harris-Foulkes estimate   =     -28.93010269 Ry
     estimated scf accuracy    <       1.19896521 Ry

     iteration # 18     ecut=    20.00 Ry     beta=0.50
     Davidson diagonalization with overlap
     ethr =  1.21E-03,  avg # of iterations =  1.4

     total cpu time spent up to now is       20.7 secs

     total energy              =     -28.89488410 Ry
     Harris-Foulkes estimate   =     -28.90823865 Ry
     estimated scf accuracy    <       0.13333100 Ry

     iteration # 19     ecut=    20.00 Ry     beta=0.50
     Davidson diagonalization with overlap
     ethr =  6.35E-04,  avg # of iterations =  4.4

     negative rho (up, down):  0.833E-02 0.000E+00

     total cpu time spent up to now is       21.5 secs

     total energy              =     -28.93190515 Ry
     Harris-Foulkes estimate   =     -28.97193474 Ry
     estimated scf accuracy    <       3.48606780 Ry

     iteration # 20     ecut=    20.00 Ry     beta=0.50
     Davidson diagonalization with overlap
     ethr =  6.35E-04,  avg # of iterations =  1.4

     negative rho (up, down):  0.446E-02 0.000E+00

     total cpu time spent up to now is       22.0 secs

     total energy              =     -28.90890802 Ry
     Harris-Foulkes estimate   =     -28.93900226 Ry
     estimated scf accuracy    <       1.97333017 Ry

     iteration # 21     ecut=    20.00 Ry     beta=0.50
     Davidson diagonalization with overlap
     ethr =  6.35E-04,  avg # of iterations =  1.0

     negative rho (up, down):  0.194E-02 0.000E+00

     total cpu time spent up to now is       22.5 secs

     total energy              =     -28.91325662 Ry
     Harris-Foulkes estimate   =     -28.91983798 Ry
     estimated scf accuracy    <       0.32958504 Ry

     iteration # 22     ecut=    20.00 Ry     beta=0.50
     Davidson diagonalization with overlap
     ethr =  6.35E-04,  avg # of iterations =  1.0

     negative rho (up, down):  0.643E-04 0.000E+00

     total cpu time spent up to now is       23.1 secs

     total energy              =     -28.92153543 Ry
     Harris-Foulkes estimate   =     -28.92112012 Ry
     estimated scf accuracy    <       0.03586955 Ry

     iteration # 23     ecut=    20.00 Ry     beta=0.50
     Davidson diagonalization with overlap
     c_bands:  1 eigenvalues not converged
     ethr =  1.71E-04,  avg # of iterations =  4.1

     total cpu time spent up to now is       24.3 secs

     total energy              =     -28.92223523 Ry
     Harris-Foulkes estimate   =     -28.92366315 Ry
     estimated scf accuracy    <       0.06419030 Ry

     iteration # 24     ecut=    20.00 Ry     beta=0.50
     Davidson diagonalization with overlap
     ethr =  1.71E-04,  avg # of iterations =  1.2

     negative rho (up, down):  0.115E-03 0.000E+00

     total cpu time spent up to now is       25.2 secs

     total energy              =     -28.92438397 Ry
     Harris-Foulkes estimate   =     -28.92383136 Ry
     estimated scf accuracy    <       0.00560335 Ry

     iteration # 25     ecut=    20.00 Ry     beta=0.50
     Davidson diagonalization with overlap
     c_bands:  1 eigenvalues not converged
     c_bands:  2 eigenvalues not converged
     c_bands:  2 eigenvalues not converged
     c_bands:  2 eigenvalues not converged
     c_bands:  2 eigenvalues not converged
     c_bands:  2 eigenvalues not converged
     c_bands:  2 eigenvalues not converged
     c_bands:  1 eigenvalues not converged
     c_bands:  1 eigenvalues not converged
     c_bands:  1 eigenvalues not converged
     ethr =  2.67E-05,  avg # of iterations = 12.8

     negative rho (up, down):  0.196E-03 0.000E+00

     total cpu time spent up to now is       26.6 secs

     total energy              =     -28.92608094 Ry
     Harris-Foulkes estimate   =     -28.92654494 Ry
     estimated scf accuracy    <       0.01347738 Ry

     iteration # 26     ecut=    20.00 Ry     beta=0.50
     Davidson diagonalization with overlap
     c_bands:  1 eigenvalues not converged
     c_bands:  2 eigenvalues not converged
     c_bands:  2 eigenvalues not converged
     ethr =  2.67E-05,  avg # of iterations =  4.8

     negative rho (up, down):  0.399E-03 0.000E+00

     total cpu time spent up to now is       27.5 secs

     total energy              =     -28.92647994 Ry
     Harris-Foulkes estimate   =     -28.92621557 Ry
     estimated scf accuracy    <       0.01186661 Ry

     iteration # 27     ecut=    20.00 Ry     beta=0.50
     Davidson diagonalization with overlap
     ethr =  2.67E-05,  avg # of iterations =  1.1

     negative rho (up, down):  0.466E-03 0.000E+00

     total cpu time spent up to now is       28.1 secs

     total energy              =     -28.92753172 Ry
     Harris-Foulkes estimate   =     -28.92692860 Ry
     estimated scf accuracy    <       0.06556607 Ry

     iteration # 28     ecut=    20.00 Ry     beta=0.50
     Davidson diagonalization with overlap
     ethr =  2.67E-05,  avg # of iterations =  1.2

     total cpu time spent up to now is       28.8 secs

     total energy              =     -28.92897907 Ry
     Harris-Foulkes estimate   =     -28.92796711 Ry
     estimated scf accuracy    <       0.02284573 Ry

     iteration # 29     ecut=    20.00 Ry     beta=0.50
     Davidson diagonalization with overlap
     ethr =  2.67E-05,  avg # of iterations =  1.6

     total cpu time spent up to now is       29.4 secs

     total energy              =     -28.93064415 Ry
     Harris-Foulkes estimate   =     -28.92964050 Ry
     estimated scf accuracy    <       0.02246857 Ry

     iteration # 30     ecut=    20.00 Ry     beta=0.50
     Davidson diagonalization with overlap
     ethr =  2.67E-05,  avg # of iterations =  1.2

     negative rho (up, down):  0.173E-03 0.000E+00

     total cpu time spent up to now is       35.5 secs

     total energy              =     -28.92641804 Ry
     Harris-Foulkes estimate   =     -28.93081242 Ry
     estimated scf accuracy    <       0.02956678 Ry

     iteration # 31     ecut=    20.00 Ry     beta=0.50
     Davidson diagonalization with overlap
     ethr =  2.67E-05,  avg # of iterations =  1.0

     negative rho (up, down):  0.555E-04 0.000E+00

     total cpu time spent up to now is       37.3 secs

     total energy              =     -28.92730475 Ry
     Harris-Foulkes estimate   =     -28.92719174 Ry
     estimated scf accuracy    <       0.01316306 Ry

     iteration # 32     ecut=    20.00 Ry     beta=0.50
     Davidson diagonalization with overlap
     ethr =  2.67E-05,  avg # of iterations =  1.1

     negative rho (up, down):  0.953E-04 0.000E+00

     total cpu time spent up to now is       43.3 secs

     total energy              =     -28.92757820 Ry
     Harris-Foulkes estimate   =     -28.92745750 Ry
     estimated scf accuracy    <       0.02719655 Ry

     iteration # 33     ecut=    20.00 Ry     beta=0.50
     Davidson diagonalization with overlap
     ethr =  2.67E-05,  avg # of iterations =  1.0

     negative rho (up, down):  0.680E-03 0.000E+00

     total cpu time spent up to now is       49.8 secs

     total energy              =     -28.92541454 Ry
     Harris-Foulkes estimate   =     -28.92760358 Ry
     estimated scf accuracy    <       0.02415478 Ry

     iteration # 34     ecut=    20.00 Ry     beta=0.50
     Davidson diagonalization with overlap
     ethr =  2.67E-05,  avg # of iterations =  3.1

     negative rho (up, down):  0.811E-03 0.000E+00

     total cpu time spent up to now is       51.6 secs

     total energy              =     -28.92675249 Ry
     Harris-Foulkes estimate   =     -28.92666758 Ry
     estimated scf accuracy    <       0.01621820 Ry

     iteration # 35     ecut=    20.00 Ry     beta=0.50
     Davidson diagonalization with overlap
     ethr =  2.67E-05,  avg # of iterations =  1.0

     negative rho (up, down):  0.108E-02 0.000E+00

     total cpu time spent up to now is       54.0 secs

     total energy              =     -28.92720471 Ry
     Harris-Foulkes estimate   =     -28.92681083 Ry
     estimated scf accuracy    <       0.01077295 Ry

     iteration # 36     ecut=    20.00 Ry     beta=0.50
     Davidson diagonalization with overlap
     ethr =  2.67E-05,  avg # of iterations =  1.0

     negative rho (up, down):  0.432E-03 0.000E+00

     total cpu time spent up to now is       54.5 secs

     total energy              =     -28.92721072 Ry
     Harris-Foulkes estimate   =     -28.92730948 Ry
     estimated scf accuracy    <       0.00098924 Ry

     iteration # 37     ecut=    20.00 Ry     beta=0.50
     Davidson diagonalization with overlap
     c_bands:  1 eigenvalues not converged
     c_bands:  1 eigenvalues not converged
     c_bands:  1 eigenvalues not converged
     c_bands:  2 eigenvalues not converged
     c_bands:  1 eigenvalues not converged
     c_bands:  1 eigenvalues not converged
     c_bands:  1 eigenvalues not converged
     c_bands:  1 eigenvalues not converged
     ethr =  4.71E-06,  avg # of iterations = 10.1

     negative rho (up, down):  0.254E-03 0.000E+00

     total cpu time spent up to now is       55.6 secs

     total energy              =     -28.92673462 Ry
     Harris-Foulkes estimate   =     -28.92751450 Ry
     estimated scf accuracy    <       0.00196849 Ry

     iteration # 38     ecut=    20.00 Ry     beta=0.50
     Davidson diagonalization with overlap
     ethr =  4.71E-06,  avg # of iterations =  2.0

     negative rho (up, down):  0.170E-03 0.000E+00

     total cpu time spent up to now is       56.2 secs

     total energy              =     -28.92707411 Ry
     Harris-Foulkes estimate   =     -28.92685447 Ry
     estimated scf accuracy    <       0.00064606 Ry

     iteration # 39     ecut=    20.00 Ry     beta=0.50
     Davidson diagonalization with overlap
     ethr =  3.08E-06,  avg # of iterations =  1.0

     negative rho (up, down):  0.363E-04 0.000E+00

     total cpu time spent up to now is       56.7 secs

     total energy              =     -28.92695426 Ry
     Harris-Foulkes estimate   =     -28.92708861 Ry
     estimated scf accuracy    <       0.00029881 Ry

     iteration # 40     ecut=    20.00 Ry     beta=0.50
     Davidson diagonalization with overlap
     c_bands:  1 eigenvalues not converged
     c_bands:  1 eigenvalues not converged
     c_bands:  1 eigenvalues not converged
     ethr =  1.42E-06,  avg # of iterations =  6.9

     negative rho (up, down):  0.382E-04 0.000E+00

     total cpu time spent up to now is       57.6 secs

     total energy              =     -28.92706761 Ry
     Harris-Foulkes estimate   =     -28.92705033 Ry
     estimated scf accuracy    <       0.00007497 Ry

     iteration # 41     ecut=    20.00 Ry     beta=0.50
     Davidson diagonalization with overlap
     c_bands:  1 eigenvalues not converged
     c_bands:  1 eigenvalues not converged
     ethr =  3.57E-07,  avg # of iterations =  6.9

     negative rho (up, down):  0.149E-04 0.000E+00

     total cpu time spent up to now is       58.4 secs

     total energy              =     -28.92712818 Ry
     Harris-Foulkes estimate   =     -28.92708411 Ry
     estimated scf accuracy    <       0.00000322 Ry

     iteration # 42     ecut=    20.00 Ry     beta=0.50
     Davidson diagonalization with overlap
     c_bands:  1 eigenvalues not converged
     c_bands:  1 eigenvalues not converged
     c_bands:  1 eigenvalues not converged
     c_bands:  2 eigenvalues not converged
     c_bands:  1 eigenvalues not converged
     c_bands:  2 eigenvalues not converged
     c_bands:  1 eigenvalues not converged
     ethr =  1.53E-08,  avg # of iterations = 11.1

     negative rho (up, down):  0.554E-05 0.000E+00

     total cpu time spent up to now is       60.9 secs

     total energy              =     -28.92714412 Ry
     Harris-Foulkes estimate   =     -28.92713557 Ry
     estimated scf accuracy    <       0.00001128 Ry

     iteration # 43     ecut=    20.00 Ry     beta=0.50
     Davidson diagonalization with overlap
     c_bands:  1 eigenvalues not converged
     c_bands:  1 eigenvalues not converged
     c_bands:  1 eigenvalues not converged
     ethr =  1.53E-08,  avg # of iterations =  5.1

     negative rho (up, down):  0.288E-05 0.000E+00

     total cpu time spent up to now is       61.6 secs

     total energy              =     -28.92715294 Ry
     Harris-Foulkes estimate   =     -28.92714483 Ry
     estimated scf accuracy    <       0.00000449 Ry

     iteration # 44     ecut=    20.00 Ry     beta=0.50
     Davidson diagonalization with overlap
     c_bands:  1 eigenvalues not converged
     ethr =  1.53E-08,  avg # of iterations =  3.3

     total cpu time spent up to now is       63.6 secs

     End of self-consistent calculation

          k = 0.0000 0.0000 0.0000 (  2893 PWs)   bands (ev):

   -16.3720 -16.0106 -15.4159 -14.5825 -13.5080 -12.2517 -10.7556  -9.2798
    -7.4589  -5.6108  -3.8114  -2.3560  -1.5773  -1.2362

          k = 0.0000 0.2041 0.0000 (  2891 PWs)   bands (ev):

   -15.9979 -15.6373 -15.0438 -14.2121 -13.1397 -11.8856 -10.3898  -8.9281
    -7.1083  -5.2669  -3.4749  -2.0134  -1.2149  -0.8663

          k = 0.0000 0.4082 0.0000 (  2909 PWs)   bands (ev):

   -14.8812 -14.5229 -13.9333 -13.1069 -12.0412 -10.7952  -9.3058  -7.8795
    -6.0891  -4.3765  -3.3975  -2.9311  -2.5168  -2.1575

          k = 0.0000 0.6124 0.0000 (  2936 PWs)   bands (ev):

   -13.0382 -12.6841 -12.1018 -11.2864 -10.2373  -9.0229  -7.6806  -7.3060
    -6.9147  -6.3123  -5.9351  -5.4704  -4.4801  -4.1825

          k = 0.0000-0.8165 0.0000 (  2982 PWs)   bands (ev):

   -10.5056 -10.4952 -10.1874 -10.1230  -9.6194  -9.5589  -8.8456  -8.8004
    -7.9535  -7.3921  -6.4222  -6.3189  -5.0002  -4.8638

          k = 0.1768-0.1021 0.0000 (  2891 PWs)   bands (ev):

   -15.9979 -15.6373 -15.0438 -14.2121 -13.1397 -11.8856 -10.3898  -8.9281
    -7.1083  -5.2669  -3.4749  -2.0134  -1.2149  -0.8663

          k = 0.1768 0.1021 0.0000 (  2891 PWs)   bands (ev):

   -15.9979 -15.6373 -15.0438 -14.2121 -13.1397 -11.8856 -10.3898  -8.9281
    -7.1083  -5.2669  -3.4749  -2.0135  -1.2148  -0.8663

          k = 0.1768 0.3062 0.0000 (  2894 PWs)   bands (ev):

   -15.2525 -14.8935 -14.3025 -13.4743 -12.4063 -11.1572  -9.6643  -8.2272
    -6.4176  -4.6058  -2.8790  -1.5500  -0.8969  -0.6774

          k = 0.1768 0.5103 0.0000 (  2934 PWs)   bands (ev):

   -13.7726 -13.4167 -12.8313 -12.0109 -10.9534  -9.7193  -8.2514  -6.8585
    -5.4409  -5.0328  -4.5721  -4.1256  -3.4750  -3.1576

          k = 0.1768-0.9186 0.0000 (  2943 PWs)   bands (ev):

   -11.5807 -11.2308 -10.6563  -9.8563  -8.8743  -8.6854  -8.3799  -7.9674
    -7.5450  -6.8446  -5.9552  -5.8200  -4.7565  -4.6360

          k = 0.1768-0.7144 0.0000 (  2943 PWs)   bands (ev):

   -11.5807 -11.2308 -10.6563  -9.8563  -8.8743  -8.6854  -8.3799  -7.9674
    -7.5450  -6.8446  -5.9552  -5.8200  -4.7565  -4.6360

          k = 0.1768-0.5103 0.0000 (  2934 PWs)   bands (ev):

   -13.7726 -13.4167 -12.8313 -12.0109 -10.9534  -9.7193  -8.2514  -6.8585
    -5.4409  -5.0328  -4.5721  -4.1256  -3.4750  -3.1575

          k = 0.1768-0.3062 0.0000 (  2894 PWs)   bands (ev):

   -15.2525 -14.8935 -14.3025 -13.4743 -12.4063 -11.1572  -9.6643  -8.2272
    -6.4176  -4.6058  -2.8788  -1.5499  -0.8974  -0.6765

          k = 0.3536-0.2041 0.0000 (  2909 PWs)   bands (ev):

   -14.8812 -14.5229 -13.9333 -13.1069 -12.0412 -10.7952  -9.3058  -7.8795
    -6.0891  -4.3765  -3.3975  -2.9311  -2.5168  -2.1575

          k = 0.3536 0.0000 0.0000 (  2894 PWs)   bands (ev):

   -15.2525 -14.8935 -14.3025 -13.4743 -12.4063 -11.1572  -9.6643  -8.2272
    -6.4176  -4.6058  -2.8788  -1.5493  -0.8970  -0.6700

          k = 0.3536 0.2041 0.0000 (  2909 PWs)   bands (ev):

   -14.8812 -14.5229 -13.9333 -13.1069 -12.0412 -10.7952  -9.3058  -7.8795
    -6.0891  -4.3765  -3.3975  -2.9311  -2.5168  -2.1575

          k = 0.3536 0.4082 0.0000 (  2934 PWs)   bands (ev):

   -13.7726 -13.4167 -12.8313 -12.0109 -10.9534  -9.7193  -8.2514  -6.8585
    -5.4409  -5.0328  -4.5721  -4.1256  -3.4750  -3.1575

          k = 0.3536-1.0206 0.0000 (  2964 PWs)   bands (ev):

   -11.9433 -11.5922 -11.0149 -10.2079  -9.1729  -7.9875  -6.7286  -6.2847
    -6.2737  -6.0443  -5.7937  -5.3692  -5.0733  -4.8140

          k = 0.3536-0.8165 0.0000 (  2968 PWs)   bands (ev):

    -9.4326  -9.4212  -9.1237  -9.0493  -8.5649  -8.4893  -7.7977  -7.7631
    -6.9467  -6.6638  -6.3477  -6.3065  -5.8884  -5.6491

          k = 0.3536-0.6124 0.0000 (  2964 PWs)   bands (ev):

   -11.9433 -11.5922 -11.0149 -10.2079  -9.1729  -7.9875  -6.7286  -6.2847
    -6.2737  -6.0443  -5.7937  -5.3693  -5.0733  -4.8142

          k = 0.3536-0.4082 0.0000 (  2934 PWs)   bands (ev):

   -13.7726 -13.4167 -12.8313 -12.0109 -10.9534  -9.7193  -8.2514  -6.8585
    -5.4409  -5.0328  -4.5721  -4.1256  -3.4750  -3.1576

          k = 0.5303-0.3062 0.0000 (  2936 PWs)   bands (ev):

   -13.0382 -12.6841 -12.1018 -11.2864 -10.2373  -9.0229  -7.6806  -7.3060
    -6.9148  -6.3123  -5.9351  -5.4704  -4.4801  -4.1825

          k = 0.5303-0.1021 0.0000 (  2934 PWs)   bands (ev):

   -13.7726 -13.4167 -12.8313 -12.0109 -10.9534  -9.7193  -8.2514  -6.8585
    -5.4409  -5.0328  -4.5721  -4.1256  -3.4750  -3.1576

          k = 0.5303 0.1021 0.0000 (  2934 PWs)   bands (ev):

   -13.7726 -13.4167 -12.8313 -12.0109 -10.9534  -9.7193  -8.2514  -6.8585
    -5.4409  -5.0328  -4.5721  -4.1256  -3.4750  -3.1575

          k = 0.5303 0.3062 0.0000 (  2936 PWs)   bands (ev):

   -13.0382 -12.6841 -12.1018 -11.2864 -10.2373  -9.0229  -7.6806  -7.3060
    -6.9148  -6.3123  -5.9351  -5.4704  -4.4800  -4.1825

          k = 0.5303-1.1227 0.0000 (  2943 PWs)   bands (ev):

   -11.5807 -11.2308 -10.6563  -9.8563  -8.8743  -8.6854  -8.3799  -7.9674
    -7.5450  -6.8446  -5.9552  -5.8200  -4.7565  -4.6360

          k = 0.5303-0.9186 0.0000 (  2968 PWs)   bands (ev):

    -9.4326  -9.4212  -9.1237  -9.0493  -8.5649  -8.4893  -7.7977  -7.7631
    -6.9467  -6.6638  -6.3476  -6.3065  -5.8884  -5.6491

          k = 0.5303-0.7144 0.0000 (  2968 PWs)   bands (ev):

    -9.4326  -9.4212  -9.1237  -9.0493  -8.5649  -8.4893  -7.7977  -7.7631
    -6.9467  -6.6638  -6.3477  -6.3065  -5.8884  -5.6491

          k = 0.5303-0.5103 0.0000 (  2943 PWs)   bands (ev):

   -11.5807 -11.2308 -10.6563  -9.8563  -8.8743  -8.6854  -8.3799  -7.9674
    -7.5450  -6.8446  -5.9552  -5.8200  -4.7565  -4.6360

          k =-0.7071 0.4082 0.0000 (  2982 PWs)   bands (ev):

   -10.5056 -10.4952 -10.1874 -10.1230  -9.6194  -9.5589  -8.8456  -8.8004
    -7.9535  -7.3921  -6.4222  -6.3189  -5.0002  -4.8639

          k =-0.7071 0.6124 0.0000 (  2943 PWs)   bands (ev):

   -11.5807 -11.2308 -10.6563  -9.8563  -8.8743  -8.6854  -8.3799  -7.9674
    -7.5450  -6.8446  -5.9552  -5.8200  -4.7565  -4.6359

          k =-0.7071 0.8165 0.0000 (  2964 PWs)   bands (ev):

   -11.9433 -11.5922 -11.0149 -10.2079  -9.1729  -7.9875  -6.7286  -6.2847
    -6.2737  -6.0443  -5.7937  -5.3692  -5.0733  -4.8140

          k =-0.7071 1.0206 0.0000 (  2943 PWs)   bands (ev):

   -11.5807 -11.2308 -10.6563  -9.8563  -8.8743  -8.6854  -8.3799  -7.9674
    -7.5450  -6.8446  -5.9552  -5.8200  -4.7565  -4.6360

          k =-0.7071-0.4082 0.0000 (  2982 PWs)   bands (ev):

   -10.5056 -10.4952 -10.1874 -10.1230  -9.6194  -9.5589  -8.8456  -8.8004
    -7.9535  -7.3921  -6.4222  -6.3189  -5.0002  -4.8639

     the Fermi energy is    -5.4739 ev

!    total energy              =     -28.92718124 Ry
     Harris-Foulkes estimate   =     -28.92715338 Ry
     estimated scf accuracy    <       0.00000047 Ry

     The total energy is the sum of the following terms:

     one-electron contribution =  -14452.16124838 Ry
     hartree contribution      =    7225.77623886 Ry
     xc contribution           =     -11.06300760 Ry
     ewald contribution        =    7208.51839567 Ry
     smearing contrib. (-TS)   =       0.00244021 Ry

     ESM Charge and Potential
     ========================

    z (A)      rho (e)      Avg v_hartree        Avg v_local  Avg v_hart+v_loc
                                   (eV/A)             (eV/A)            (eV/A)
    ==========================================================================
  -20.160      0.00000      14124.9187261     -14126.9338665        -2.0151404
  -19.980      0.00000      17331.8895358     -17334.3524710        -2.4629352
  -19.800      0.00000      19606.6554196     -19609.4365247        -2.7811051
  -19.620      0.00000      20470.6731209     -20473.5753140        -2.9021931
  -19.440      0.00000      20471.0650159     -20473.9671751        -2.9021592
  -19.260      0.00000      20470.5925035     -20473.4947067        -2.9022032
  -19.080      0.00000      20471.1422742     -20474.0444245        -2.9021502
  -18.900      0.00000      20470.5191417     -20473.4213542        -2.9022125
  -18.720      0.00000      20471.2112312     -20474.1133736        -2.9021424
  -18.540      0.00000      20470.4550576     -20473.3572783        -2.9022207
  -18.360      0.00000      20471.2700109     -20474.1721471        -2.9021361
  -18.180      0.00000      20470.4019653     -20473.3041926        -2.9022273
  -18.000      0.00000      20471.3170747     -20474.2192065        -2.9021318
  -17.820      0.00000      20470.3612159     -20473.2634479        -2.9022320
  -17.640      0.00000      20471.3512700     -20474.2533999        -2.9021299
  -17.460      0.00000      20470.3337543     -20473.2359888        -2.9022345
  -17.280      0.00000      20471.3718661     -20474.2739968        -2.9021307
  -17.100      0.00000      20470.3200918     -20473.2223261        -2.9022343
  -16.920      0.00000      20471.3785749     -20474.2807094        -2.9021346
  -16.740      0.00000      20470.3202924     -20473.2225236        -2.9022311
  -16.560      0.00000      20471.3715554     -20474.2736973        -2.9021419
  -16.380      0.00000      20470.3339764     -20473.2362009        -2.9022246
  -16.200      0.00000      20471.3514036     -20474.2535567        -2.9021530
  -16.020      0.00000      20470.3603379     -20473.2625523        -2.9022144
  -15.840      0.00000      20471.3191266     -20474.2212949        -2.9021682
  -15.660      0.00000      20470.3981787     -20473.3003791        -2.9022004
  -15.480      0.00000      20471.2761024     -20474.1782902        -2.9021877
  -15.300      0.00000      20470.4459542     -20473.3481367        -2.9021825
  -15.120      0.00000      20471.2240274     -20474.1262390        -2.9022117
  -14.940      0.00000      20470.5018318     -20473.4039924        -2.9021606
  -14.760      0.00000      20471.1648528     -20474.0670930        -2.9022402
  -14.580      0.00000      20470.5637586     -20473.4658938        -2.9021352
  -14.400      0.00000      20471.1007136     -20474.0029870        -2.9022734
  -14.220      0.00000      20470.6295358     -20473.5316428        -2.9021069
  -14.040      0.00000      20471.0338507     -20473.9361624        -2.9023117
  -13.860      0.00000      20470.6968977     -20473.5989749        -2.9020772
  -13.680      0.00000      20470.9665305     -20473.8688867        -2.9023562
  -13.500      0.00000      20470.7635904     -20473.6656394        -2.9020490
  -13.320      0.00000      20470.9009646     -20473.8033741        -2.9024095
  -13.140      0.00000      20470.8274494     -20473.7294780        -2.9020285
  -12.960      0.00000      20470.8392299     -20473.7417086        -2.9024786
  -12.780      0.00000      20470.8864695     -20473.7884987        -2.9020293
  -12.600      0.00001      20470.7831921     -20473.6857730        -2.9025809
  -12.420      0.00001      20470.9388619     -20473.8409434        -2.9020815
  -12.240      0.00001      20470.7344280     -20473.6371865        -2.9027585
  -12.060      0.00002      20470.9830882     -20473.8853421        -2.9022538
  -11.880      0.00004      20470.6941368     -20473.5972495        -2.9031128
  -11.700      0.00006      20471.0178495     -20473.9205659        -2.9027165
  -11.520      0.00009      20470.6630103     -20473.5669147        -2.9039044
  -11.340      0.00013      20471.0419746     -20473.9458573        -2.9038827
  -11.160      0.00021      20470.6409829     -20473.5467487        -2.9057659
  -10.980      0.00033      20471.0540899     -20473.9608462        -2.9067563
  -10.800      0.00052      20470.6266628     -20473.5369242        -2.9102615
  -10.620      0.00081      20471.0517374     -20473.9655572        -2.9138198
  -10.440      0.00128      20470.6159548     -20473.5372208        -2.9212660
  -10.260      0.00202      20471.0292078     -20473.9604018        -2.9311939
  -10.080      0.00318      20470.5986532     -20473.5470391        -2.9483859
   -9.900      0.00500      20470.9720659     -20473.9461599        -2.9740940
   -9.720      0.00790      20470.5498916     -20473.5654215        -3.0155298
   -9.540      0.01247      20470.8436153     -20473.9239582        -3.0803429
   -9.360      0.01966      20470.4087863     -20473.5910765        -3.1822902
   -9.180      0.03090      20470.5509977     -20473.8952701        -3.3442724
   -9.000      0.04834      20470.0257501     -20473.6222839        -3.5965338
   -8.820      0.07491      20469.8642929     -20473.8616602        -3.9973673
   -8.640      0.11419      20469.0410251     -20473.6559555        -4.6149304
   -8.460      0.17010      20468.2408004     -20473.8110291        -5.5702287
   -8.280      0.24601      20466.6472036     -20473.3945646        -6.7473610
   -8.100      0.34166      20464.5320601     -20473.3211449        -8.7890848
   -7.920      0.44845      20461.2775458     -20474.0742442       -12.7966983
   -7.740      0.54870      20456.7529332     -20475.4645272       -18.7115941
   -7.560      0.62435      20450.6450056     -20476.1662758       -25.5212702
   -7.380      0.66832      20442.6002911     -20474.6474856       -32.0471944
   -7.200      0.68573      20432.7701031     -20469.6780493       -36.9079462
   -7.020      0.68679      20420.6741955     -20459.4590646       -38.7848691
   -6.840      0.68215      20406.8696888     -20444.0264418       -37.1567531
   -6.660      0.68016      20390.6776447     -20423.1570371       -32.4793924
   -6.480      0.68118      20372.9117051     -20399.0046177       -26.0929125
   -6.300      0.67793      20352.6569356     -20372.1640734       -19.5071378
   -6.120      0.66762      20330.9312702     -20345.0478460       -14.1165758
   -5.940      0.65940      20306.6747642     -20317.6081200       -10.9333558
   -5.760      0.66438      20281.0630571     -20291.8805896       -10.8175325
   -5.580      0.68117      20252.8755515     -20266.6844932       -13.8089417
   -5.400      0.69565      20223.3096805     -20242.4059693       -19.0962887
   -5.220      0.69579      20191.0608190     -20216.7447020       -25.6838830
   -5.040      0.68380      20157.3996142     -20189.5882849       -32.1886707
   -4.860      0.67086      20121.0952740     -20158.1592553       -37.0639812
   -4.680      0.66492      20083.4238828     -20122.3335757       -38.9096929
   -4.500      0.66815      20043.2002727     -20080.3866737       -37.1864009
   -4.320      0.67928      20001.5658483     -20033.9525071       -32.3866588
   -4.140      0.69127      19957.4034930     -19983.2893467       -25.8858537
   -3.960      0.69318      19911.6899119     -19930.9218153       -19.2319034
   -3.780      0.68211      19863.4992065     -19877.3241046       -13.8248982
   -3.600      0.66914      19813.6839673     -19824.3635344       -10.6795671
   -3.420      0.66777      19761.5631791     -19772.1958924       -10.6327133
   -3.240      0.67869      19707.7416083     -19721.4422743       -13.7006660
   -3.060      0.68947      19651.7104754     -19670.7561439       -19.0456685
   -2.880      0.68926      19593.7948399     -19619.4595392       -25.6646993
   -2.700      0.68043      19533.7698798     -19565.9355491       -32.1656693
   -2.520      0.67271      19471.7527444     -19508.7681354       -37.0153910
   -2.340      0.67133      19407.8026071     -19446.6314027       -38.8287956
   -2.160      0.67609      19341.7557509     -19378.8488525       -37.0931016
   -1.980      0.68500      19273.8940266     -19306.2054071       -32.3113805
   -1.800      0.69205      19203.7737711     -19229.6347048       -25.8609338
   -1.620      0.68827      19131.9133510     -19151.1859353       -19.2725843
   -1.440      0.67272      19057.6764347     -19071.6061402       -13.9297055
   -1.260      0.65764      18981.8563845     -18992.6862646       -10.8298801
   -1.080      0.65681      18903.6496951     -18914.4514105       -10.8017154
   -0.900      0.67066      18823.9863758     -18837.8370030       -13.8506271
   -0.720      0.68622      18741.8292740     -18760.9734367       -19.1441628
   -0.540      0.69165      18658.1953136     -18683.8863175       -25.6910039
   -0.360      0.68783      18571.9612191     -18604.0730558       -32.1118366
   -0.180      0.68280      18484.2770452     -18521.1657409       -36.8886956
    0.000      0.68098      18393.9952891     -18432.6426946       -38.6474055
    0.180      0.68274      18302.2890021     -18339.1749668       -36.8859647
    0.360      0.68773      18207.9927942     -18240.0990023       -32.1062081
    0.540      0.69157      18112.2318670     -18137.9140788       -25.6822118
    0.720      0.68616      18013.8932080     -18033.0251633       -19.1319553
    0.900      0.67066      17914.0487064     -17927.8835473       -13.8348409
    1.080      0.65685      17811.7462562     -17822.5285911       -10.7823349
    1.260      0.65772      17707.9449787     -17718.7519929       -10.8070142
    1.440      0.67281      17601.8047262     -17615.7083031       -13.9035769
    1.620      0.68834      17494.0279449     -17513.2713852       -19.2434403
    1.800      0.69208      17383.9322543     -17409.7612522       -25.8289979
    1.980      0.68497      17272.0344930     -17304.3112304       -32.2767374
    2.160      0.67600      17157.9434067     -17194.9990855       -37.0556788
    2.340      0.67120      17041.9700124     -17080.7583377       -38.7883253
    2.520      0.67258      16923.9697693     -16960.9412840       -36.9715147
    2.700      0.68034      16803.9663822     -16836.0843896       -32.1180074
    2.880      0.68923      16682.0417885     -16707.6547945       -25.6130060
    3.060      0.68951      16557.9378452     -16576.9277052       -18.9898600
    3.240      0.67878      16432.0179564     -16445.6588232       -13.6408668
    3.420      0.66788      16303.8218118     -16314.3909766       -10.5691648
    3.600      0.66924      16173.9880085     -16184.6005945       -10.6125860
    3.780      0.68217      16041.7887133     -16055.5434659       -13.7547526
    3.960      0.69319      15908.0198943     -15927.1786688       -19.1587745
    4.140      0.69123      15771.7238974     -15797.5336585       -25.8097611
    4.320      0.67922      15633.9210288     -15666.2285326       -32.3075038
    4.500      0.66812      15493.5524769     -15530.6564984       -37.1040215
    4.680      0.66495      15351.8042642     -15390.6282759       -38.8240117
    4.860      0.67097      15207.4799217     -15244.4550191       -36.9750974
    5.040      0.68396      15061.8044043     -15093.9013101       -32.0969058
    5.220      0.69595      14913.4769788     -14939.0666742       -25.5896954
    5.400      0.69575      14763.7370070     -14782.7371343       -19.0001274
    5.580      0.68117      14611.3216823     -14625.0327719       -13.7110897
    5.760      0.66428      14457.5118853     -14468.2298851       -10.7179998
    5.940      0.65922      14301.1507609     -14311.9826250       -10.8318642
    6.120      0.66740      14143.4028394     -14157.4154417       -14.0126024
    6.300      0.67775      13983.1644706     -14002.5645461       -19.4000755
    6.480      0.68113      13821.4085951     -13847.3908594       -25.9822643
    6.660      0.68032      13657.2179923     -13689.5830472       -32.3650549
    6.840      0.68252      13491.3926523     -13528.4318406       -37.0391882
    7.020      0.68729      13323.2448646     -13361.9100248       -38.6651602
    7.200      0.68616      13153.3157676     -13190.1032637       -36.7874961
    7.380      0.66845      12981.1954422     -13013.1226720       -31.9272298
    7.560      0.62401      12807.2099505     -12832.6120883       -25.4021378
    7.740      0.54782      12631.3708166     -12649.9631060       -18.5922894
    7.920      0.44713      12453.8668690     -12466.5415320       -12.6746631
    8.100      0.34005      12275.1817193     -12283.8422037        -8.6604844
    8.280      0.24428      12095.2767814     -12101.8842664        -6.6074850
    8.460      0.16840      11914.9395778     -11920.3536124        -5.4140346
    8.640      0.11264      11733.7316017     -11738.1690344        -4.4374327
    8.820      0.07358      11552.6307841     -11556.4248066        -3.7940224
    9.000      0.04725      11370.7962913     -11374.1596900        -3.3633987
    9.180      0.03004      11189.3999275     -11192.4780506        -3.0781231
    9.360      0.01899      11007.2731590     -11010.1537081        -2.8805491
    9.540      0.01196      10825.7844827     -10828.5255143        -2.7410316
    9.720      0.00751      10643.5169583     -10646.1540884        -2.6371301
    9.900      0.00472      10462.0102615     -10464.5657393        -2.5554778
   10.080      0.00297      10279.6737254     -10282.1624282        -2.4887028
   10.260      0.00186      10098.1675683     -10100.5973904        -2.4298221
   10.440      0.00117       9915.8021229      -9918.1798660        -2.3777431
   10.620      0.00073       9734.2916963      -9736.6195073        -2.3278110
   10.800      0.00046       9551.9256581      -9554.2071819        -2.2815239
   10.980      0.00029       9370.3963858      -9372.6314976        -2.2351118
   11.160      0.00018       9188.0536868      -9190.2447792        -2.1910924
   11.340      0.00011       9006.4870675      -9008.6331525        -2.1460850
   11.520      0.00007       8824.1897439      -8826.2926707        -2.1029267
   11.700      0.00004       8642.5661519      -8644.6246575        -2.0585057
   11.880      0.00003       8460.3348246      -8462.3504730        -2.0156484
   12.060      0.00002       8278.6350904      -8280.6065926        -1.9715023
   12.240      0.00001       8096.4886944      -8098.4174127        -1.9287183
   12.420      0.00001       7914.6951898      -7916.5799170        -1.8847272
   12.600      0.00000       7732.6504211      -7734.4923425        -1.8419214
   12.780      0.00000       7550.7479030      -7552.5459452        -1.7980422
   12.960      0.00000       7368.8186083      -7370.5737870        -1.7551787
   13.140      0.00000       7186.7949155      -7188.5063095        -1.7113940
   13.320      0.00000       7004.9915200      -7006.6599786        -1.6684586
   13.500      0.00000       6822.8381415      -6824.4629014        -1.6247599
   13.680      0.00000       6641.1671691      -6642.7489181        -1.5817490
   13.860      0.00000       6458.8796808      -6460.4178108        -1.5381301
   14.040      0.00000       6277.3433971      -6278.8384427        -1.4950456
   14.220      0.00000       6094.9217551      -6096.3732552        -1.4515001
   14.400      0.00000       5913.5179528      -5914.9262996        -1.4083468
   14.580      0.00000       5730.9666345      -5732.3315026        -1.3648681
   14.760      0.00000       5549.6885732      -5551.0102256        -1.3216524
   14.940      0.00000       5367.0165587      -5368.2947916        -1.2782329
   15.120      0.00000       5185.8530645      -5187.0880266        -1.2349622
   15.300      0.00000       5003.0736576      -5004.2652517        -1.1915941
   15.480      0.00000       4822.0093808      -4823.1576570        -1.1482762
   15.660      0.00000       4639.1398747      -4640.2448261        -1.1049514
   15.840      0.00000       4458.1556993      -4459.2172938        -1.0615946
   16.020      0.00000       4275.2168958      -4276.2352007        -1.0183049
   16.200      0.00000       4094.2904872      -4095.2654043        -0.9749170
   16.380      0.00000       3911.3060861      -3912.2377408        -0.9316547
   16.560      0.00000       3730.4125601      -3731.3008035        -0.8882435
   16.740      0.00000       3547.4084381      -3548.2534390        -0.8450009
   16.920      0.00000       3366.5211273      -3367.3227010        -0.8015736
   17.100      0.00000       3183.5245319      -3184.2828757        -0.7583438
   17.280      0.00000       3002.6158254      -3003.3307326        -0.7149073
   17.460      0.00000       2819.6545105      -2820.3261942        -0.6716837
   17.640      0.00000       2638.6967349      -2639.3249789        -0.6282440
   17.820      0.00000       2455.7980689      -2456.3830898        -0.5850209
   18.000      0.00000       2274.7643834      -2275.3059669        -0.5415835
   18.180      0.00000       2091.9544603      -2092.4528161        -0.4983558
   18.360      0.00000       1910.8197316      -1911.2746571        -0.4549255
   18.540      0.00000       1728.1225174      -1728.5342061        -0.4116887
   18.720      0.00000       1546.8641448      -1547.2324143        -0.3682695
   18.900      0.00000       1364.3006880      -1364.6257079        -0.3250199
   19.080      0.00000       1182.8993495      -1183.1809648        -0.2816153
   19.260      0.00000       1000.4870848      -1000.7254346        -0.2383499
   19.440      0.00000        818.9273782       -819.1223405        -0.1949623
   19.620      0.00000       1523.7489311      -1524.0270902        -0.2781591
   19.800      0.00000       3684.7924783      -3685.3617015        -0.5692232
   19.980      0.00000       6823.5401535      -6824.5409466        -1.0007931
   20.160      0.00000      10462.8545927     -10464.3598390        -1.5052464
 

     convergence has been achieved in  44 iterations

     Forces acting on atoms (Ry/au):

     atom    1 type  1   force =    -0.00000090    0.00000029   -0.00152482
     atom    2 type  1   force =    -0.00000052   -0.00000067    0.00674034
     atom    3 type  1   force =     0.00000056    0.00000004   -0.00548748
     atom    4 type  1   force =     0.00000102    0.00000025   -0.00006470
     atom    5 type  1   force =     0.00000023    0.00000010    0.00547594
     atom    6 type  1   force =    -0.00000037   -0.00000018   -0.00680851
     atom    7 type  1   force =    -0.00000002    0.00000017    0.00166924

     Total force =     0.012530     Total SCF correction =     0.001493
     SCF correction compared to forces is large: reduce conv_thr to get better values

     Writing output data file Al111.save
 
     init_run     :      0.37s CPU      0.47s WALL (       1 calls)
     electrons    :     58.56s CPU     63.03s WALL (       1 calls)
     forces       :      0.09s CPU      0.09s WALL (       1 calls)

     Called by init_run:
     wfcinit      :      0.31s CPU      0.33s WALL (       1 calls)
     potinit      :      0.02s CPU      0.03s WALL (       1 calls)

     Called by electrons:
     c_bands      :     50.04s CPU     51.19s WALL (      44 calls)
     sum_band     :      7.66s CPU      7.75s WALL (      44 calls)
     v_of_rho     :      0.20s CPU      0.23s WALL (      45 calls)
     mix_rho      :      0.06s CPU      0.06s WALL (      44 calls)

     Called by c_bands:
     init_us_2    :      0.41s CPU      0.45s WALL (    3060 calls)
     cegterg      :     48.86s CPU     49.75s WALL (    1524 calls)

     Called by *egterg:
     h_psi        :     39.38s CPU     39.90s WALL (    7963 calls)
     g_psi        :      0.33s CPU      0.33s WALL (    6405 calls)
     cdiaghg      :      5.39s CPU      5.32s WALL (    7929 calls)

     Called by h_psi:
     add_vuspsi   :      1.29s CPU      1.24s WALL (    7963 calls)

     General routines
     calbec       :      1.81s CPU      1.85s WALL (    7997 calls)
     fft          :      0.08s CPU      0.09s WALL (     498 calls)
     fftw         :     42.10s CPU     42.66s WALL (  157458 calls)
     davcio       :      0.04s CPU      0.26s WALL (    4556 calls)
 
     Parallel routines
     fft_scatter  :     30.66s CPU     31.08s WALL (  157956 calls)
 
     PWSCF        :  0m59.17s CPU     1m 4.53s WALL

 
   This run was terminated on:  16:10:40  11Aug2011            

=------------------------------------------------------------------------------=
   JOB DONE.
=------------------------------------------------------------------------------=
