
     Program PWSCF v.4.3.2      starts on  5Oct2011 at 23:31:53 

     This program is part of the open-source Quantum ESPRESSO suite
     for quantum simulation of materials; please cite
         "P. Giannozzi et al., J. Phys.:Condens. Matter 21 395502 (2009);
          URL http://www.quantum-espresso.org", 
     in publications or presentations arising from this work. More details at
     http://www.quantum-espresso.org/quote.php

     Parallel version (MPI), running on    12 processors
     R & G space division:  proc/pool =   12

     Current dimensions of program PWSCF are:
     Max number of different atomic species (ntypx) = 10
     Max number of k-points (npk) =  40000
     Max angular momentum in pseudopotentials (lmaxx) =  3
     Waiting for input...
     Reading input from stdin

     Subspace diagonalization in iterative solution of the eigenvalue problem:
     a serial algorithm will be used


     Parallelization info
     --------------------
     sticks:   dense  smooth     PW     G-vecs:    dense   smooth      PW
     Min          13      13      5                 1955     1955     435
     Max          14      14      6                 1996     1996     467
     Sum         163     163     61                23647    23647    5473



     bravais-lattice index     =            0
     lattice parameter (alat)  =       7.6534  a.u.
     unit-cell volume          =    1941.1667 (a.u.)^3
     number of atoms/cell      =            7
     number of atomic types    =            1
     number of electrons       =        21.00
     number of Kohn-Sham states=           14
     kinetic-energy cutoff     =      20.0000  Ry
     charge density cutoff     =      80.0000  Ry
     convergence threshold     =      1.0E-06
     mixing beta               =       0.5000
     number of iterations used =            8  plain     mixing
     Exchange-correlation      =  SLA  PW   PBE  PBE ( 1 4 3 4 0)
     EXX-fraction              =        0.00

     Effective Screening Medium Method
     =================================
     field strength (Ry/a.u.)         =       0.00 
     ESM offset from cell edge (a.u.) =       0.00 
     grid points for fit at edges     =          4 
     Boundary Conditions: Vacuum-Slab-Metal


     celldm(1)=   7.653394  celldm(2)=   0.000000  celldm(3)=   0.000000
     celldm(4)=   0.000000  celldm(5)=   0.000000  celldm(6)=   0.000000

     crystal axes: (cart. coord. in units of alat)
               a(1) = (   0.707107   0.000000   0.000000 )  
               a(2) = (   0.353553   0.612372   0.000000 )  
               a(3) = (   0.000000   0.000000  10.000000 )  

     reciprocal axes: (cart. coord. in units 2 pi/alat)
               b(1) = (  1.414214 -0.816497  0.000000 )  
               b(2) = (  0.000000  1.632993  0.000000 )  
               b(3) = (  0.000000  0.000000  0.100000 )  


     PseudoPot. # 1 for Al read from file:
     /p/lscratchd/wood37/data/old_scratcha/esm_code_svn/trunk/espresso/pseudo/Al.pbe-rrkj.UPF
     MD5 check sum: b5320f8fdc07ab0d74f109f4aa58256b
     Pseudo is Norm-conserving, Zval =  3.0
     Generated by new atomic code, or converted to UPF format
     Using radial grid of  879 points,  4 beta functions with: 
                l(1) =   0
                l(2) =   0
                l(3) =   1
                l(4) =   1

     atomic species   valence    mass     pseudopotential
        Al             3.00    26.98154     Al( 1.00)

     No symmetry found



   Cartesian axes

     site n.     atom                  positions (alat units)
         1           Al  tau(   1) = (   0.0000000   0.0000000  -1.7320512  )
         2           Al  tau(   2) = (   0.0000000   0.4082492  -1.1547008  )
         3           Al  tau(   3) = (   0.3535529   0.2041234  -0.5773504  )
         4           Al  tau(   4) = (   0.0000000   0.0000000   0.0000000  )
         5           Al  tau(   5) = (   0.0000000   0.4082492   0.5773504  )
         6           Al  tau(   6) = (   0.3535529   0.2041234   1.1547008  )
         7           Al  tau(   7) = (   0.0000000   0.0000000   1.7320512  )

     number of k points=    34  Methfessel-Paxton smearing, width (Ry)=  0.0500
                       cart. coord. in units 2pi/alat
        k(    1) = (   0.0000000   0.0000000   0.0000000), wk =   0.0312500
        k(    2) = (   0.0000000   0.2041241   0.0000000), wk =   0.0625000
        k(    3) = (   0.0000000   0.4082483   0.0000000), wk =   0.0625000
        k(    4) = (   0.0000000   0.6123724   0.0000000), wk =   0.0625000
        k(    5) = (   0.0000000  -0.8164966   0.0000000), wk =   0.0312500
        k(    6) = (   0.1767767  -0.1020621   0.0000000), wk =   0.0625000
        k(    7) = (   0.1767767   0.1020621   0.0000000), wk =   0.0625000
        k(    8) = (   0.1767767   0.3061862   0.0000000), wk =   0.0625000
        k(    9) = (   0.1767767   0.5103104   0.0000000), wk =   0.0625000
        k(   10) = (   0.1767767  -0.9185587   0.0000000), wk =   0.0625000
        k(   11) = (   0.1767767  -0.7144345   0.0000000), wk =   0.0625000
        k(   12) = (   0.1767767  -0.5103104   0.0000000), wk =   0.0625000
        k(   13) = (   0.1767767  -0.3061862   0.0000000), wk =   0.0625000
        k(   14) = (   0.3535534  -0.2041241   0.0000000), wk =   0.0625000
        k(   15) = (   0.3535534   0.0000000   0.0000000), wk =   0.0625000
        k(   16) = (   0.3535534   0.2041241   0.0000000), wk =   0.0625000
        k(   17) = (   0.3535534   0.4082483   0.0000000), wk =   0.0625000
        k(   18) = (   0.3535534  -1.0206207   0.0000000), wk =   0.0625000
        k(   19) = (   0.3535534  -0.8164966   0.0000000), wk =   0.0625000
        k(   20) = (   0.3535534  -0.6123724   0.0000000), wk =   0.0625000
        k(   21) = (   0.3535534  -0.4082483   0.0000000), wk =   0.0625000
        k(   22) = (   0.5303301  -0.3061862   0.0000000), wk =   0.0625000
        k(   23) = (   0.5303301  -0.1020621   0.0000000), wk =   0.0625000
        k(   24) = (   0.5303301   0.1020621   0.0000000), wk =   0.0625000
        k(   25) = (   0.5303301   0.3061862   0.0000000), wk =   0.0625000
        k(   26) = (   0.5303301  -1.1226828   0.0000000), wk =   0.0625000
        k(   27) = (   0.5303301  -0.9185587   0.0000000), wk =   0.0625000
        k(   28) = (   0.5303301  -0.7144345   0.0000000), wk =   0.0625000
        k(   29) = (   0.5303301  -0.5103104   0.0000000), wk =   0.0625000
        k(   30) = (  -0.7071068   0.4082483   0.0000000), wk =   0.0312500
        k(   31) = (  -0.7071068   0.6123724   0.0000000), wk =   0.0625000
        k(   32) = (  -0.7071068   0.8164966   0.0000000), wk =   0.0625000
        k(   33) = (  -0.7071068   1.0206207   0.0000000), wk =   0.0625000
        k(   34) = (  -0.7071068  -0.4082483   0.0000000), wk =   0.0312500

     Dense  grid:    23647 G-vectors     FFT dimensions: (  15,  15, 225)

     Largest allocated arrays     est. size (Mb)     dimensions
        Kohn-Sham Wavefunctions         0.06 Mb     (    264,   14)
        NL pseudopotentials             0.23 Mb     (    264,   56)
        Each V/rho on FFT grid          0.07 Mb     (   4275)
        Each G-vector array             0.01 Mb     (   1963)
        G-vector shells                 0.01 Mb     (    963)
     Largest temporary arrays     est. size (Mb)     dimensions
        Auxiliary wavefunctions         0.23 Mb     (    264,   56)
        Each subspace H/S matrix        0.05 Mb     (  56,  56)
        Each <psi_i|beta_j> matrix      0.01 Mb     (     56,   14)
        Arrays for rho mixing           0.52 Mb     (   4275,   8)

     Initial potential from superposition of free atoms

     starting charge   20.98187, renormalised to   20.99500

     negative rho (up, down):  0.215E-04 0.000E+00
     Starting wfc are   28 atomic wfcs

     total cpu time spent up to now is        0.6 secs

     per-process dynamical memory:     9.2 Mb

     Self-consistent Calculation

     iteration #  1     ecut=    20.00 Ry     beta=0.50
     Davidson diagonalization with overlap
     ethr =  1.00E-02,  avg # of iterations =  4.0

     negative rho (up, down):  0.429E-05 0.000E+00

     total cpu time spent up to now is        2.1 secs

     total energy              =     -27.48484042 Ry
     Harris-Foulkes estimate   =     -28.90463574 Ry
     estimated scf accuracy    <       1.50359155 Ry

     iteration #  2     ecut=    20.00 Ry     beta=0.50
     Davidson diagonalization with overlap
     c_bands:  2 eigenvalues not converged
     c_bands:  4 eigenvalues not converged
     c_bands:  5 eigenvalues not converged
     c_bands:  4 eigenvalues not converged
     c_bands:  2 eigenvalues not converged
     c_bands:  4 eigenvalues not converged
     c_bands:  4 eigenvalues not converged
     c_bands:  2 eigenvalues not converged
     c_bands:  4 eigenvalues not converged
     c_bands:  2 eigenvalues not converged
     c_bands:  4 eigenvalues not converged
     c_bands:  2 eigenvalues not converged
     c_bands:  2 eigenvalues not converged
     c_bands:  2 eigenvalues not converged
     c_bands:  4 eigenvalues not converged
     c_bands:  2 eigenvalues not converged
     c_bands:  2 eigenvalues not converged
     c_bands:  4 eigenvalues not converged
     c_bands:  4 eigenvalues not converged
     c_bands:  4 eigenvalues not converged
     c_bands:  5 eigenvalues not converged
     c_bands:  4 eigenvalues not converged
     c_bands:  4 eigenvalues not converged
     c_bands:  5 eigenvalues not converged
     ethr =  7.16E-03,  avg # of iterations = 24.6

     negative rho (up, down):  0.131E-05 0.000E+00

     total cpu time spent up to now is        7.3 secs

     total energy              =      -5.83283127 Ry
     Harris-Foulkes estimate   =     -66.94041069 Ry
     estimated scf accuracy    <    1102.05453326 Ry

     iteration #  3     ecut=    20.00 Ry     beta=0.50
     Davidson diagonalization with overlap
     c_bands:  3 eigenvalues not converged
     c_bands:  3 eigenvalues not converged
     c_bands:  4 eigenvalues not converged
     c_bands:  5 eigenvalues not converged
     c_bands:  4 eigenvalues not converged
     c_bands:  4 eigenvalues not converged
     c_bands:  3 eigenvalues not converged
     c_bands:  4 eigenvalues not converged
     c_bands:  3 eigenvalues not converged
     c_bands:  2 eigenvalues not converged
     c_bands:  2 eigenvalues not converged
     c_bands:  4 eigenvalues not converged
     c_bands:  4 eigenvalues not converged
     c_bands:  5 eigenvalues not converged
     c_bands:  2 eigenvalues not converged
     c_bands:  5 eigenvalues not converged
     ethr =  7.16E-03,  avg # of iterations = 24.1

     total cpu time spent up to now is       12.7 secs

     total energy              =     -28.09586299 Ry
     Harris-Foulkes estimate   =     -29.88595993 Ry
     estimated scf accuracy    <      58.37680914 Ry

     iteration #  4     ecut=    20.00 Ry     beta=0.50
     Davidson diagonalization with overlap
     ethr =  7.16E-03,  avg # of iterations =  2.8

     total cpu time spent up to now is       13.9 secs

     total energy              =     -28.62412446 Ry
     Harris-Foulkes estimate   =     -29.06871068 Ry
     estimated scf accuracy    <       4.50913002 Ry

     iteration #  5     ecut=    20.00 Ry     beta=0.50
     Davidson diagonalization with overlap
     ethr =  7.16E-03,  avg # of iterations =  3.1

     negative rho (up, down):  0.154E-01 0.000E+00

     total cpu time spent up to now is       14.7 secs

     total energy              =     -29.00692535 Ry
     Harris-Foulkes estimate   =     -28.93366272 Ry
     estimated scf accuracy    <       8.28874724 Ry

     iteration #  6     ecut=    20.00 Ry     beta=0.50
     Davidson diagonalization with overlap
     ethr =  7.16E-03,  avg # of iterations =  1.0

     negative rho (up, down):  0.155E-01 0.000E+00

     total cpu time spent up to now is       15.2 secs

     total energy              =     -28.92392206 Ry
     Harris-Foulkes estimate   =     -29.08401444 Ry
     estimated scf accuracy    <      18.00139044 Ry

     iteration #  7     ecut=    20.00 Ry     beta=0.50
     Davidson diagonalization with overlap
     ethr =  7.16E-03,  avg # of iterations =  1.0

     negative rho (up, down):  0.491E-01 0.000E+00

     total cpu time spent up to now is       15.8 secs

     total energy              =     -29.24793410 Ry
     Harris-Foulkes estimate   =     -28.97419631 Ry
     estimated scf accuracy    <       9.62429717 Ry

     iteration #  8     ecut=    20.00 Ry     beta=0.50
     Davidson diagonalization with overlap
     ethr =  7.16E-03,  avg # of iterations =  1.3

     negative rho (up, down):  0.656E-01 0.000E+00

     total cpu time spent up to now is       16.4 secs

     total energy              =     -28.78916425 Ry
     Harris-Foulkes estimate   =     -29.51375616 Ry
     estimated scf accuracy    <      35.44473403 Ry

     iteration #  9     ecut=    20.00 Ry     beta=0.50
     Davidson diagonalization with overlap
     ethr =  7.16E-03,  avg # of iterations =  1.0

     negative rho (up, down):  0.373E-01 0.000E+00

     total cpu time spent up to now is       17.0 secs

     total energy              =     -28.79976169 Ry
     Harris-Foulkes estimate   =     -29.05246639 Ry
     estimated scf accuracy    <       2.50064376 Ry

     iteration # 10     ecut=    20.00 Ry     beta=0.50
     Davidson diagonalization with overlap
     ethr =  7.16E-03,  avg # of iterations =  1.6

     negative rho (up, down):  0.258E-01 0.000E+00

     total cpu time spent up to now is       17.6 secs

     total energy              =     -28.91632199 Ry
     Harris-Foulkes estimate   =     -28.93072585 Ry
     estimated scf accuracy    <       0.25597182 Ry

     iteration # 11     ecut=    20.00 Ry     beta=0.50
     Davidson diagonalization with overlap
     ethr =  1.22E-03,  avg # of iterations =  6.3

     negative rho (up, down):  0.936E-02 0.000E+00

     total cpu time spent up to now is       18.8 secs

     total energy              =     -28.88365273 Ry
     Harris-Foulkes estimate   =     -29.05754927 Ry
     estimated scf accuracy    <       1.49385726 Ry

     iteration # 12     ecut=    20.00 Ry     beta=0.50
     Davidson diagonalization with overlap
     c_bands:  1 eigenvalues not converged
     c_bands:  1 eigenvalues not converged
     c_bands:  1 eigenvalues not converged
     ethr =  1.22E-03,  avg # of iterations =  8.7

     negative rho (up, down):  0.192E-01 0.000E+00

     total cpu time spent up to now is       20.4 secs

     total energy              =     -28.87206025 Ry
     Harris-Foulkes estimate   =     -29.70176726 Ry
     estimated scf accuracy    <      49.84003784 Ry

     iteration # 13     ecut=    20.00 Ry     beta=0.50
     Davidson diagonalization with overlap
     ethr =  1.22E-03,  avg # of iterations =  3.3

     negative rho (up, down):  0.325E-01 0.000E+00

     total cpu time spent up to now is       21.2 secs

     total energy              =     -28.85423243 Ry
     Harris-Foulkes estimate   =     -29.07515814 Ry
     estimated scf accuracy    <      14.68033086 Ry

     iteration # 14     ecut=    20.00 Ry     beta=0.50
     Davidson diagonalization with overlap
     ethr =  1.22E-03,  avg # of iterations =  1.2

     negative rho (up, down):  0.326E-01 0.000E+00

     total cpu time spent up to now is       21.8 secs

     total energy              =     -28.76299931 Ry
     Harris-Foulkes estimate   =     -28.87829870 Ry
     estimated scf accuracy    <       9.17177654 Ry

     iteration # 15     ecut=    20.00 Ry     beta=0.50
     Davidson diagonalization with overlap
     ethr =  1.22E-03,  avg # of iterations =  2.5

     negative rho (up, down):  0.324E-02 0.000E+00

     total cpu time spent up to now is       22.5 secs

     total energy              =     -28.74457247 Ry
     Harris-Foulkes estimate   =     -28.79941602 Ry
     estimated scf accuracy    <       4.80460197 Ry

     iteration # 16     ecut=    20.00 Ry     beta=0.50
     Davidson diagonalization with overlap
     ethr =  1.22E-03,  avg # of iterations =  6.9

     negative rho (up, down):  0.154E-03 0.000E+00

     total cpu time spent up to now is       23.8 secs

     total energy              =     -28.88045811 Ry
     Harris-Foulkes estimate   =     -28.88109168 Ry
     estimated scf accuracy    <       0.15181673 Ry

     iteration # 17     ecut=    20.00 Ry     beta=0.50
     Davidson diagonalization with overlap
     c_bands:  3 eigenvalues not converged
     c_bands:  3 eigenvalues not converged
     c_bands:  3 eigenvalues not converged
     ethr =  7.23E-04,  avg # of iterations =  4.4

     total cpu time spent up to now is       24.7 secs

     total energy              =     -28.90811193 Ry
     Harris-Foulkes estimate   =     -28.93425976 Ry
     estimated scf accuracy    <       0.29361544 Ry

     iteration # 18     ecut=    20.00 Ry     beta=0.50
     Davidson diagonalization with overlap
     ethr =  7.23E-04,  avg # of iterations =  1.4

     total cpu time spent up to now is       25.3 secs

     total energy              =     -28.88122960 Ry
     Harris-Foulkes estimate   =     -28.92801828 Ry
     estimated scf accuracy    <       0.52360956 Ry

     iteration # 19     ecut=    20.00 Ry     beta=0.50
     Davidson diagonalization with overlap
     ethr =  7.23E-04,  avg # of iterations =  4.2

     negative rho (up, down):  0.369E-02 0.000E+00

     total cpu time spent up to now is       26.2 secs

     total energy              =     -28.92295928 Ry
     Harris-Foulkes estimate   =     -28.95213878 Ry
     estimated scf accuracy    <       2.40701090 Ry

     iteration # 20     ecut=    20.00 Ry     beta=0.50
     Davidson diagonalization with overlap
     ethr =  7.23E-04,  avg # of iterations =  1.0

     negative rho (up, down):  0.282E-02 0.000E+00

     total cpu time spent up to now is       26.7 secs

     total energy              =     -28.90271902 Ry
     Harris-Foulkes estimate   =     -28.92874909 Ry
     estimated scf accuracy    <       1.04656555 Ry

     iteration # 21     ecut=    20.00 Ry     beta=0.50
     Davidson diagonalization with overlap
     ethr =  7.23E-04,  avg # of iterations =  1.0

     total cpu time spent up to now is       27.3 secs

     total energy              =     -28.92434658 Ry
     Harris-Foulkes estimate   =     -28.92076760 Ry
     estimated scf accuracy    <       0.02137848 Ry

     iteration # 22     ecut=    20.00 Ry     beta=0.50
     Davidson diagonalization with overlap
     c_bands:  1 eigenvalues not converged
     c_bands:  1 eigenvalues not converged
     c_bands:  1 eigenvalues not converged
     c_bands:  1 eigenvalues not converged
     c_bands:  1 eigenvalues not converged
     c_bands:  1 eigenvalues not converged
     ethr =  1.02E-04,  avg # of iterations = 11.5

     total cpu time spent up to now is       28.7 secs

     total energy              =     -28.91867479 Ry
     Harris-Foulkes estimate   =     -28.92888049 Ry
     estimated scf accuracy    <       0.22774910 Ry

     iteration # 23     ecut=    20.00 Ry     beta=0.50
     Davidson diagonalization with overlap
     ethr =  1.02E-04,  avg # of iterations =  1.5

     total cpu time spent up to now is       29.3 secs

     total energy              =     -28.92343665 Ry
     Harris-Foulkes estimate   =     -28.92281259 Ry
     estimated scf accuracy    <       0.01263009 Ry

     iteration # 24     ecut=    20.00 Ry     beta=0.50
     Davidson diagonalization with overlap
     ethr =  6.02E-05,  avg # of iterations =  2.2

     total cpu time spent up to now is       29.9 secs

     total energy              =     -28.92301127 Ry
     Harris-Foulkes estimate   =     -28.92387148 Ry
     estimated scf accuracy    <       0.02313016 Ry

     iteration # 25     ecut=    20.00 Ry     beta=0.50
     Davidson diagonalization with overlap
     ethr =  6.02E-05,  avg # of iterations =  1.9

     negative rho (up, down):  0.525E-03 0.000E+00

     total cpu time spent up to now is       30.6 secs

     total energy              =     -28.92495251 Ry
     Harris-Foulkes estimate   =     -28.92401352 Ry
     estimated scf accuracy    <       0.06418550 Ry

     iteration # 26     ecut=    20.00 Ry     beta=0.50
     Davidson diagonalization with overlap
     ethr =  6.02E-05,  avg # of iterations =  1.0

     negative rho (up, down):  0.964E-03 0.000E+00

     total cpu time spent up to now is       31.2 secs

     total energy              =     -28.92577116 Ry
     Harris-Foulkes estimate   =     -28.92540754 Ry
     estimated scf accuracy    <       0.14352476 Ry

     iteration # 27     ecut=    20.00 Ry     beta=0.50
     Davidson diagonalization with overlap
     ethr =  6.02E-05,  avg # of iterations =  1.0

     negative rho (up, down):  0.410E-03 0.000E+00

     total cpu time spent up to now is       31.8 secs

     total energy              =     -28.92497897 Ry
     Harris-Foulkes estimate   =     -28.92589728 Ry
     estimated scf accuracy    <       0.14117967 Ry

     iteration # 28     ecut=    20.00 Ry     beta=0.50
     Davidson diagonalization with overlap
     ethr =  6.02E-05,  avg # of iterations =  1.0

     negative rho (up, down):  0.116E-03 0.000E+00

     total cpu time spent up to now is       32.4 secs

     total energy              =     -28.92578303 Ry
     Harris-Foulkes estimate   =     -28.92556030 Ry
     estimated scf accuracy    <       0.03905096 Ry

     iteration # 29     ecut=    20.00 Ry     beta=0.50
     Davidson diagonalization with overlap
     ethr =  6.02E-05,  avg # of iterations =  1.0

     negative rho (up, down):  0.424E-04 0.000E+00

     total cpu time spent up to now is       32.9 secs

     total energy              =     -28.92627019 Ry
     Harris-Foulkes estimate   =     -28.92628001 Ry
     estimated scf accuracy    <       0.00211581 Ry

     iteration # 30     ecut=    20.00 Ry     beta=0.50
     Davidson diagonalization with overlap
     c_bands:  2 eigenvalues not converged
     c_bands:  2 eigenvalues not converged
     c_bands:  2 eigenvalues not converged
     c_bands:  2 eigenvalues not converged
     c_bands:  2 eigenvalues not converged
     c_bands:  2 eigenvalues not converged
     c_bands:  2 eigenvalues not converged
     ethr =  1.01E-05,  avg # of iterations = 10.9

     negative rho (up, down):  0.104E-04 0.000E+00

     total cpu time spent up to now is       34.4 secs

     total energy              =     -28.92664672 Ry
     Harris-Foulkes estimate   =     -28.92676109 Ry
     estimated scf accuracy    <       0.00083355 Ry

     iteration # 31     ecut=    20.00 Ry     beta=0.50
     Davidson diagonalization with overlap
     c_bands:  1 eigenvalues not converged
     c_bands:  1 eigenvalues not converged
     c_bands:  1 eigenvalues not converged
     c_bands:  2 eigenvalues not converged
     c_bands:  2 eigenvalues not converged
     c_bands:  2 eigenvalues not converged
     ethr =  3.97E-06,  avg # of iterations =  8.3

     negative rho (up, down):  0.590E-04 0.000E+00

     total cpu time spent up to now is       35.5 secs

     total energy              =     -28.92681749 Ry
     Harris-Foulkes estimate   =     -28.92674135 Ry
     estimated scf accuracy    <       0.00018876 Ry

     iteration # 32     ecut=    20.00 Ry     beta=0.50
     Davidson diagonalization with overlap
     c_bands:  2 eigenvalues not converged
     c_bands:  2 eigenvalues not converged
     c_bands:  2 eigenvalues not converged
     ethr =  8.99E-07,  avg # of iterations =  8.0

     negative rho (up, down):  0.354E-04 0.000E+00

     total cpu time spent up to now is       36.7 secs

     total energy              =     -28.92696070 Ry
     Harris-Foulkes estimate   =     -28.92686006 Ry
     estimated scf accuracy    <       0.00015497 Ry

     iteration # 33     ecut=    20.00 Ry     beta=0.50
     Davidson diagonalization with overlap
     ethr =  7.38E-07,  avg # of iterations =  1.0

     negative rho (up, down):  0.105E-03 0.000E+00

     total cpu time spent up to now is       37.3 secs

     total energy              =     -28.92720759 Ry
     Harris-Foulkes estimate   =     -28.92696969 Ry
     estimated scf accuracy    <       0.00043557 Ry

     iteration # 34     ecut=    20.00 Ry     beta=0.50
     Davidson diagonalization with overlap
     ethr =  7.38E-07,  avg # of iterations =  2.1

     negative rho (up, down):  0.624E-04 0.000E+00

     total cpu time spent up to now is       37.9 secs

     total energy              =     -28.92713800 Ry
     Harris-Foulkes estimate   =     -28.92722087 Ry
     estimated scf accuracy    <       0.00019148 Ry

     iteration # 35     ecut=    20.00 Ry     beta=0.50
     Davidson diagonalization with overlap
     ethr =  7.38E-07,  avg # of iterations =  2.4

     negative rho (up, down):  0.358E-04 0.000E+00

     total cpu time spent up to now is       38.6 secs

     total energy              =     -28.92715626 Ry
     Harris-Foulkes estimate   =     -28.92714618 Ry
     estimated scf accuracy    <       0.00013673 Ry

     iteration # 36     ecut=    20.00 Ry     beta=0.50
     Davidson diagonalization with overlap
     ethr =  6.51E-07,  avg # of iterations =  1.0

     negative rho (up, down):  0.515E-05 0.000E+00

     total cpu time spent up to now is       39.2 secs

     total energy              =     -28.92716157 Ry
     Harris-Foulkes estimate   =     -28.92715977 Ry
     estimated scf accuracy    <       0.00005758 Ry

     iteration # 37     ecut=    20.00 Ry     beta=0.50
     Davidson diagonalization with overlap
     c_bands:  1 eigenvalues not converged
     c_bands:  1 eigenvalues not converged
     ethr =  2.74E-07,  avg # of iterations =  4.0

     negative rho (up, down):  0.389E-05 0.000E+00

     total cpu time spent up to now is       40.0 secs

     total energy              =     -28.92717926 Ry
     Harris-Foulkes estimate   =     -28.92718249 Ry
     estimated scf accuracy    <       0.00005134 Ry

     iteration # 38     ecut=    20.00 Ry     beta=0.50
     Davidson diagonalization with overlap
     ethr =  2.45E-07,  avg # of iterations =  1.2

     negative rho (up, down):  0.411E-06 0.000E+00

     total cpu time spent up to now is       40.6 secs

     total energy              =     -28.92713604 Ry
     Harris-Foulkes estimate   =     -28.92718156 Ry
     estimated scf accuracy    <       0.00005718 Ry

     iteration # 39     ecut=    20.00 Ry     beta=0.50
     Davidson diagonalization with overlap
     ethr =  2.45E-07,  avg # of iterations =  1.2

     negative rho (up, down):  0.591E-05 0.000E+00

     total cpu time spent up to now is       41.2 secs

     total energy              =     -28.92717501 Ry
     Harris-Foulkes estimate   =     -28.92713891 Ry
     estimated scf accuracy    <       0.00003491 Ry

     iteration # 40     ecut=    20.00 Ry     beta=0.50
     Davidson diagonalization with overlap
     ethr =  1.66E-07,  avg # of iterations =  1.8

     negative rho (up, down):  0.971E-05 0.000E+00

     total cpu time spent up to now is       41.9 secs

     total energy              =     -28.92718836 Ry
     Harris-Foulkes estimate   =     -28.92717889 Ry
     estimated scf accuracy    <       0.00000121 Ry

     iteration # 41     ecut=    20.00 Ry     beta=0.50
     Davidson diagonalization with overlap
     c_bands:  1 eigenvalues not converged
     c_bands:  1 eigenvalues not converged
     c_bands:  2 eigenvalues not converged
     c_bands:  1 eigenvalues not converged
     ethr =  5.77E-09,  avg # of iterations = 11.2

     negative rho (up, down):  0.663E-06 0.000E+00

     total cpu time spent up to now is       43.8 secs

     total energy              =     -28.92717569 Ry
     Harris-Foulkes estimate   =     -28.92719350 Ry
     estimated scf accuracy    <       0.00000774 Ry

     iteration # 42     ecut=    20.00 Ry     beta=0.50
     Davidson diagonalization with overlap
     ethr =  5.77E-09,  avg # of iterations =  7.0

     negative rho (up, down):  0.464E-05 0.000E+00

     total cpu time spent up to now is       45.1 secs

     total energy              =     -28.92718649 Ry
     Harris-Foulkes estimate   =     -28.92717792 Ry
     estimated scf accuracy    <       0.00000674 Ry

     iteration # 43     ecut=    20.00 Ry     beta=0.50
     Davidson diagonalization with overlap
     ethr =  5.77E-09,  avg # of iterations =  1.0

     negative rho (up, down):  0.391E-05 0.000E+00

     total cpu time spent up to now is       45.7 secs

     total energy              =     -28.92718705 Ry
     Harris-Foulkes estimate   =     -28.92718652 Ry
     estimated scf accuracy    <       0.00000409 Ry

     iteration # 44     ecut=    20.00 Ry     beta=0.50
     Davidson diagonalization with overlap
     ethr =  5.77E-09,  avg # of iterations =  1.0

     negative rho (up, down):  0.260E-05 0.000E+00

     total cpu time spent up to now is       46.3 secs

     total energy              =     -28.92718367 Ry
     Harris-Foulkes estimate   =     -28.92718711 Ry
     estimated scf accuracy    <       0.00000286 Ry

     iteration # 45     ecut=    20.00 Ry     beta=0.50
     Davidson diagonalization with overlap
     ethr =  5.77E-09,  avg # of iterations =  1.0

     negative rho (up, down):  0.160E-05 0.000E+00

     total cpu time spent up to now is       46.8 secs

     total energy              =     -28.92718252 Ry
     Harris-Foulkes estimate   =     -28.92718371 Ry
     estimated scf accuracy    <       0.00000150 Ry

     iteration # 46     ecut=    20.00 Ry     beta=0.50
     Davidson diagonalization with overlap
     ethr =  5.77E-09,  avg # of iterations =  1.3

     total cpu time spent up to now is       47.4 secs

     End of self-consistent calculation

          k = 0.0000 0.0000 0.0000 (  2893 PWs)   bands (ev):

   -16.3713 -16.0110 -15.4161 -14.5821 -13.5076 -12.2512 -10.7551  -9.2793
    -7.4583  -5.6102  -3.8107  -2.3562  -1.5742  -1.1793

          k = 0.0000 0.2041 0.0000 (  2891 PWs)   bands (ev):

   -15.9973 -15.6377 -15.0440 -14.2117 -13.1393 -11.8851 -10.3893  -8.9276
    -7.1077  -5.2663  -3.4742  -2.0137  -1.2129  -0.8118

          k = 0.0000 0.4082 0.0000 (  2909 PWs)   bands (ev):

   -14.8805 -14.5232 -13.9335 -13.1066 -12.0408 -10.7947  -9.3053  -7.8790
    -6.0886  -4.3759  -3.3970  -2.9312  -2.5164  -2.1569

          k = 0.0000 0.6124 0.0000 (  2936 PWs)   bands (ev):

   -13.0375 -12.6844 -12.1020 -11.2860 -10.2369  -9.0225  -7.6802  -7.3055
    -6.9150  -6.3124  -5.9347  -5.4700  -4.4798  -4.1821

          k = 0.0000-0.8165 0.0000 (  2982 PWs)   bands (ev):

   -10.5051 -10.4945 -10.1878 -10.1233  -9.6195  -9.5592  -8.8452  -8.8000
    -7.9531  -7.3917  -6.4218  -6.3185  -4.9995  -4.8637

          k = 0.1768-0.1021 0.0000 (  2891 PWs)   bands (ev):

   -15.9973 -15.6377 -15.0440 -14.2117 -13.1393 -11.8851 -10.3893  -8.9276
    -7.1077  -5.2663  -3.4742  -2.0137  -1.2129  -0.8118

          k = 0.1768 0.1021 0.0000 (  2891 PWs)   bands (ev):

   -15.9973 -15.6377 -15.0440 -14.2117 -13.1393 -11.8851 -10.3893  -8.9276
    -7.1077  -5.2663  -3.4742  -2.0137  -1.2129  -0.8118

          k = 0.1768 0.3062 0.0000 (  2894 PWs)   bands (ev):

   -15.2519 -14.8938 -14.3027 -13.4740 -12.4058 -11.1567  -9.6639  -8.2267
    -6.4171  -4.6052  -2.8783  -1.5489  -0.8952  -0.6704

          k = 0.1768 0.5103 0.0000 (  2934 PWs)   bands (ev):

   -13.7720 -13.4171 -12.8315 -12.0106 -10.9530  -9.7188  -8.2509  -6.8580
    -5.4404  -5.0326  -4.5722  -4.1258  -3.4747  -3.1579

          k = 0.1768-0.9186 0.0000 (  2943 PWs)   bands (ev):

   -11.5800 -11.2311 -10.6565  -9.8560  -8.8738  -8.6849  -8.3802  -7.9673
    -7.5448  -6.8443  -5.9547  -5.8196  -4.7560  -4.6357

          k = 0.1768-0.7144 0.0000 (  2943 PWs)   bands (ev):

   -11.5800 -11.2311 -10.6565  -9.8560  -8.8738  -8.6849  -8.3802  -7.9673
    -7.5448  -6.8443  -5.9547  -5.8196  -4.7560  -4.6357

          k = 0.1768-0.5103 0.0000 (  2934 PWs)   bands (ev):

   -13.7720 -13.4171 -12.8315 -12.0106 -10.9530  -9.7188  -8.2509  -6.8580
    -5.4404  -5.0326  -4.5722  -4.1258  -3.4747  -3.1579

          k = 0.1768-0.3062 0.0000 (  2894 PWs)   bands (ev):

   -15.2519 -14.8938 -14.3027 -13.4740 -12.4058 -11.1567  -9.6639  -8.2267
    -6.4171  -4.6052  -2.8783  -1.5489  -0.8952  -0.6703

          k = 0.3536-0.2041 0.0000 (  2909 PWs)   bands (ev):

   -14.8805 -14.5232 -13.9335 -13.1066 -12.0408 -10.7947  -9.3053  -7.8790
    -6.0886  -4.3759  -3.3970  -2.9312  -2.5164  -2.1569

          k = 0.3536 0.0000 0.0000 (  2894 PWs)   bands (ev):

   -15.2519 -14.8938 -14.3027 -13.4740 -12.4058 -11.1567  -9.6639  -8.2267
    -6.4171  -4.6052  -2.8783  -1.5489  -0.8952  -0.6704

          k = 0.3536 0.2041 0.0000 (  2909 PWs)   bands (ev):

   -14.8805 -14.5232 -13.9335 -13.1066 -12.0408 -10.7947  -9.3053  -7.8790
    -6.0886  -4.3759  -3.3969  -2.9311  -2.5158  -2.1555

          k = 0.3536 0.4082 0.0000 (  2934 PWs)   bands (ev):

   -13.7720 -13.4171 -12.8315 -12.0106 -10.9530  -9.7188  -8.2509  -6.8580
    -5.4404  -5.0326  -4.5722  -4.1258  -3.4747  -3.1579

          k = 0.3536-1.0206 0.0000 (  2964 PWs)   bands (ev):

   -11.9427 -11.5925 -11.0151 -10.2075  -9.1725  -7.9871  -6.7282  -6.2838
    -6.2733  -6.0447  -5.7940  -5.3694  -5.0735  -4.8137

          k = 0.3536-0.8165 0.0000 (  2968 PWs)   bands (ev):

    -9.4320  -9.4205  -9.1241  -9.0496  -8.5651  -8.4896  -7.7973  -7.7627
    -6.9464  -6.6632  -6.3474  -6.3067  -5.8883  -5.6486

          k = 0.3536-0.6124 0.0000 (  2964 PWs)   bands (ev):

   -11.9427 -11.5925 -11.0151 -10.2075  -9.1725  -7.9871  -6.7282  -6.2839
    -6.2733  -6.0447  -5.7940  -5.3694  -5.0735  -4.8137

          k = 0.3536-0.4082 0.0000 (  2934 PWs)   bands (ev):

   -13.7720 -13.4171 -12.8315 -12.0106 -10.9530  -9.7188  -8.2509  -6.8580
    -5.4404  -5.0326  -4.5722  -4.1258  -3.4747  -3.1579

          k = 0.5303-0.3062 0.0000 (  2936 PWs)   bands (ev):

   -13.0375 -12.6844 -12.1020 -11.2860 -10.2369  -9.0225  -7.6802  -7.3055
    -6.9150  -6.3124  -5.9347  -5.4700  -4.4798  -4.1821

          k = 0.5303-0.1021 0.0000 (  2934 PWs)   bands (ev):

   -13.7720 -13.4171 -12.8315 -12.0106 -10.9530  -9.7188  -8.2509  -6.8580
    -5.4404  -5.0326  -4.5722  -4.1258  -3.4747  -3.1579

          k = 0.5303 0.1021 0.0000 (  2934 PWs)   bands (ev):

   -13.7720 -13.4171 -12.8315 -12.0106 -10.9530  -9.7188  -8.2509  -6.8580
    -5.4404  -5.0326  -4.5722  -4.1258  -3.4747  -3.1579

          k = 0.5303 0.3062 0.0000 (  2936 PWs)   bands (ev):

   -13.0375 -12.6844 -12.1020 -11.2860 -10.2369  -9.0225  -7.6802  -7.3055
    -6.9150  -6.3124  -5.9347  -5.4700  -4.4798  -4.1821

          k = 0.5303-1.1227 0.0000 (  2943 PWs)   bands (ev):

   -11.5800 -11.2311 -10.6565  -9.8560  -8.8738  -8.6849  -8.3802  -7.9673
    -7.5448  -6.8443  -5.9547  -5.8196  -4.7560  -4.6357

          k = 0.5303-0.9186 0.0000 (  2968 PWs)   bands (ev):

    -9.4320  -9.4205  -9.1241  -9.0496  -8.5651  -8.4896  -7.7973  -7.7627
    -6.9464  -6.6632  -6.3474  -6.3067  -5.8883  -5.6486

          k = 0.5303-0.7144 0.0000 (  2968 PWs)   bands (ev):

    -9.4320  -9.4205  -9.1241  -9.0496  -8.5651  -8.4896  -7.7973  -7.7627
    -6.9464  -6.6632  -6.3474  -6.3067  -5.8883  -5.6486

          k = 0.5303-0.5103 0.0000 (  2943 PWs)   bands (ev):

   -11.5800 -11.2311 -10.6565  -9.8560  -8.8738  -8.6849  -8.3802  -7.9673
    -7.5448  -6.8443  -5.9548  -5.8196  -4.7560  -4.6357

          k =-0.7071 0.4082 0.0000 (  2982 PWs)   bands (ev):

   -10.5051 -10.4945 -10.1878 -10.1233  -9.6195  -9.5592  -8.8452  -8.8000
    -7.9531  -7.3917  -6.4217  -6.3185  -4.9995  -4.8637

          k =-0.7071 0.6124 0.0000 (  2943 PWs)   bands (ev):

   -11.5800 -11.2311 -10.6565  -9.8560  -8.8738  -8.6849  -8.3802  -7.9673
    -7.5448  -6.8443  -5.9548  -5.8196  -4.7560  -4.6357

          k =-0.7071 0.8165 0.0000 (  2964 PWs)   bands (ev):

   -11.9427 -11.5925 -11.0151 -10.2075  -9.1725  -7.9871  -6.7282  -6.2839
    -6.2733  -6.0447  -5.7940  -5.3694  -5.0735  -4.8137

          k =-0.7071 1.0206 0.0000 (  2943 PWs)   bands (ev):

   -11.5800 -11.2311 -10.6565  -9.8560  -8.8738  -8.6849  -8.3802  -7.9673
    -7.5448  -6.8443  -5.9547  -5.8196  -4.7560  -4.6357

          k =-0.7071-0.4082 0.0000 (  2982 PWs)   bands (ev):

   -10.5051 -10.4945 -10.1878 -10.1233  -9.6195  -9.5592  -8.8452  -8.8000
    -7.9531  -7.3917  -6.4218  -6.3185  -4.9995  -4.8637

     the Fermi energy is    -5.4736 ev

!    total energy              =     -28.92718103 Ry
     Harris-Foulkes estimate   =     -28.92718258 Ry
     estimated scf accuracy    <       0.00000072 Ry

     The total energy is the sum of the following terms:

     one-electron contribution =  -14452.19416240 Ry
     hartree contribution      =    7225.80912874 Ry
     xc contribution           =     -11.06298442 Ry
     ewald contribution        =    7208.51839567 Ry
     smearing contrib. (-TS)   =       0.00244137 Ry

     ESM Charge and Potential
     ========================

    z (A)      rho (e)      Avg v_hartree        Avg v_local  Avg v_hart+v_loc
                                     (eV)               (eV)              (eV)
    ==========================================================================
  -20.160      0.00000       7474.6378774      -7475.6514294        -1.0135520
  -19.980      0.00000       9171.7061116      -9172.9442533        -1.2381417
  -19.800      0.00000      10375.4691251     -10376.8668822        -1.3977571
  -19.620      0.00000      10832.6909190     -10834.1494345        -1.4585155
  -19.440      0.00000      10832.8983024     -10834.3567985        -1.4584961
  -19.260      0.00000      10832.6482578     -10834.1067790        -1.4585212
  -19.080      0.00000      10832.9391860     -10834.3976771        -1.4584910
  -18.900      0.00000      10832.6094362     -10834.0679625        -1.4585264
  -18.720      0.00000      10832.9756768     -10834.4341634        -1.4584866
  -18.540      0.00000      10832.5755241     -10834.0340550        -1.4585309
  -18.360      0.00000      10833.0067819     -10834.4652650        -1.4584831
  -18.180      0.00000      10832.5474286     -10834.0059633        -1.4585346
  -18.000      0.00000      10833.0316871     -10834.4901678        -1.4584807
  -17.820      0.00000      10832.5258648     -10833.9844021        -1.4585373
  -17.640      0.00000      10833.0497826     -10834.5082621        -1.4584795
  -17.460      0.00000      10832.5113327     -10833.9698714        -1.4585387
  -17.280      0.00000      10833.0606817     -10834.5191615        -1.4584798
  -17.100      0.00000      10832.5041027     -10833.9626414        -1.4585387
  -16.920      0.00000      10833.0642318     -10834.5227137        -1.4584819
  -16.740      0.00000      10832.5042089     -10833.9627459        -1.4585370
  -16.560      0.00000      10833.0605172     -10834.5190030        -1.4584858
  -16.380      0.00000      10832.5114501     -10833.9699836        -1.4585335
  -16.200      0.00000      10833.0498533     -10834.5083451        -1.4584918
  -16.020      0.00000      10832.5254002     -10833.9839282        -1.4585280
  -15.840      0.00000      10833.0327729     -10834.4912729        -1.4585000
  -15.660      0.00000      10832.5454248     -10834.0039452        -1.4585205
  -15.480      0.00000      10833.0100053     -10834.4685158        -1.4585105
  -15.300      0.00000      10832.5707066     -10834.0292174        -1.4585108
  -15.120      0.00000      10832.9824481     -10834.4409715        -1.4585233
  -14.940      0.00000      10832.6002759     -10834.0587750        -1.4584991
  -14.760      0.00000      10832.9511341     -10834.4096727        -1.4585387
  -14.580      0.00000      10832.6330464     -10834.0915318        -1.4584855
  -14.400      0.00000      10832.9171928     -10834.3757493        -1.4585565
  -14.220      0.00000      10832.6678544     -10834.1263247        -1.4584703
  -14.040      0.00000      10832.8818102     -10834.3403873        -1.4585771
  -13.860      0.00000      10832.7035010     -10834.1619553        -1.4584543
  -13.680      0.00000      10832.8461856     -10834.3047865        -1.4586009
  -13.500      0.00000      10832.7387935     -10834.1972327        -1.4584391
  -13.320      0.00000      10832.8114894     -10834.2701187        -1.4586293
  -13.140      0.00000      10832.7725866     -10834.2310146        -1.4584280
  -12.960      0.00000      10832.7788206     -10834.2374867        -1.4586661
  -12.780      0.00000      10832.8038189     -10834.2622470        -1.4584282
  -12.600      0.00001      10832.7491664     -10834.2078869        -1.4587205
  -12.420      0.00001      10832.8315438     -10834.2899995        -1.4584557
  -12.240      0.00001      10832.7233611     -10834.1821760        -1.4588149
  -12.060      0.00002      10832.8549472     -10834.3134943        -1.4585471
  -11.880      0.00004      10832.7020393     -10834.1610423        -1.4590030
  -11.700      0.00005      10832.8733416     -10834.3321340        -1.4587923
  -11.520      0.00009      10832.6855673     -10834.1449898        -1.4594225
  -11.340      0.00013      10832.8861082     -10834.3455176        -1.4594094
  -11.160      0.00021      10832.6739116     -10834.1343184        -1.4604068
  -10.980      0.00033      10832.8925215     -10834.3534494        -1.4609278
  -10.800      0.00052      10832.6663380     -10834.1291195        -1.4627815
  -10.620      0.00081      10832.8912841     -10834.3559423        -1.4646583
  -10.440      0.00128      10832.6606833     -10834.1292764        -1.4685932
  -10.260      0.00201      10832.8793790     -10834.3532142        -1.4738352
  -10.080      0.00317      10832.6515514     -10834.1344721        -1.4829207
   -9.900      0.00500      10832.8491720     -10834.3456777        -1.4965057
   -9.720      0.00789      10832.6257873     -10834.1441996        -1.5184124
   -9.540      0.01247      10832.7812457     -10834.3339291        -1.5526834
   -9.360      0.01966      10832.5511700     -10834.1577757        -1.6066057
   -9.180      0.03091      10832.6264525     -10834.3187480        -1.6922955
   -9.000      0.04835      10832.3485228     -10834.1742899        -1.8257671
   -8.820      0.07493      10832.2630904     -10834.3009624        -2.0378720
   -8.640      0.11421      10831.8274156     -10834.1921081        -2.3646926
   -8.460      0.17014      10831.4038951     -10834.2741696        -2.8702745
   -8.280      0.24606      10830.5604797     -10834.0537860        -3.4933063
   -8.100      0.34173      10829.4409918     -10834.0149340        -4.5739423
   -7.920      0.44854      10827.7184622     -10834.4134570        -6.6949948
   -7.740      0.54881      10825.3236798     -10835.1491631        -9.8254834
   -7.560      0.62448      10822.0908632     -10835.5205125       -13.4296492
   -7.380      0.66846      10817.8329370     -10834.7168033       -16.8838663
   -7.200      0.68587      10812.6299618     -10832.0870909       -19.4571291
   -7.020      0.68692      10806.2278037     -10826.6794371       -20.4516334
   -6.840      0.68227      10798.9212913     -10818.5128448       -19.5915535
   -6.660      0.68028      10790.3511534     -10807.4692315       -17.1180781
   -6.480      0.68130      10780.9479561     -10794.6883216       -13.7403655
   -6.300      0.67806      10770.2275285     -10780.4849173       -10.2573888
   -6.120      0.66774      10758.7285378     -10766.1356278        -7.4070900
   -5.940      0.65952      10745.8900864     -10751.6151502        -5.7250637
   -5.760      0.66448      10732.3343163     -10738.0007275        -5.6664112
   -5.580      0.68125      10717.4153315     -10724.6675275        -7.2521961
   -5.400      0.69573      10701.7668121     -10711.8198860       -10.0530738
   -5.220      0.69586      10684.6983949     -10698.2405282       -13.5421333
   -5.040      0.68385      10666.8824997     -10683.8699712       -16.9874715
   -4.860      0.67090      10647.6678325     -10667.2384450       -19.5706125
   -4.680      0.66494      10627.7296947     -10648.2803119       -20.5506172
   -4.500      0.66814      10606.4409481     -10626.0829674       -19.6420193
   -4.320      0.67924      10584.4056427     -10601.5110647       -17.1054220
   -4.140      0.69120      10561.0326709     -10574.7012749       -13.6686041
   -3.960      0.69308      10536.8389377     -10546.9895708       -10.1506331
   -3.780      0.68198      10511.3345215     -10518.6268839        -7.2923624
   -3.600      0.66900      10484.9706345     -10490.6013572        -5.6307227
   -3.420      0.66761      10457.3869276     -10462.9954300        -5.6085025
   -3.240      0.67851      10428.9034612     -10436.1377721        -7.2343108
   -3.060      0.68927      10399.2510275     -10409.3158271       -10.0647996
   -2.880      0.68906      10368.6016627     -10382.1708330       -13.5691704
   -2.700      0.68024      10336.8364019     -10353.8471573       -17.0107554
   -2.520      0.67253      10304.0172296     -10323.5954649       -19.5782353
   -2.340      0.67117      10270.1754384     -10290.7141222       -20.5386838
   -2.160      0.67595      10235.2243649     -10254.8451414       -19.6207765
   -1.980      0.68488      10199.3131294     -10216.4038858       -17.0907564
   -1.800      0.69194      10162.2069231     -10175.8844153       -13.6774922
   -1.620      0.68819      10124.1800234     -10134.3711144       -10.1910911
   -1.440      0.67266      10084.8956598     -10092.2593006        -7.3636408
   -1.260      0.65761      10044.7736263     -10050.4967011        -5.7230748
   -1.080      0.65680      10003.3886857     -10009.0965994        -5.7079137
   -0.900      0.67067       9961.2329497      -9968.5540011        -7.3210514
   -0.720      0.68623       9917.7575537      -9927.8795537       -10.1220000
   -0.540      0.69167       9873.5006223      -9887.0868071       -13.5861848
   -0.360      0.68784       9827.8677371      -9844.8514481       -16.9837110
   -0.180      0.68281       9781.4674878      -9800.9787866       -19.5112988
    0.000      0.68098       9733.6926406      -9754.1344081       -20.4417675
    0.180      0.68275       9685.1639534      -9704.6734168       -19.5094634
    0.360      0.68774       9635.2647249      -9652.2446744       -16.9799495
    0.540      0.69157       9584.5903946      -9598.1707419       -13.5803473
    0.720      0.68616       9532.5519850      -9542.6659183       -10.1139333
    0.900      0.67065       9479.7167279      -9487.0273715        -7.3106436
    1.080      0.65684       9425.5807914      -9431.2759299        -5.6951385
    1.260      0.65771       9370.6517225      -9376.3597193        -5.7079968
    1.440      0.67281       9314.4849248      -9321.8313472        -7.3464224
    1.620      0.68835       9257.4521112      -9267.6240649       -10.1719537
    1.800      0.69209       9199.1921715      -9212.8488617       -13.6566901
    1.980      0.68499       9139.9786025      -9157.0471135       -17.0685110
    2.160      0.67602       9079.6043563      -9099.2016178       -19.5972615
    2.340      0.67122       9018.2340132      -9038.7480178       -20.5140046
    2.520      0.67261       8955.7910771      -8975.3435637       -19.5524866
    2.700      0.68038       8892.2880804      -8909.2721409       -16.9840604
    2.880      0.68928       8827.7683674      -8841.3101263       -13.5417588
    3.060      0.68957       8762.0953175      -8772.1323300       -10.0370125
    3.240      0.67884       8695.4612250      -8702.6678295        -7.2066045
    3.420      0.66794       8627.6224970      -8633.2038768        -5.5813798
    3.600      0.66930       8558.9170680      -8564.5217647        -5.6046968
    3.780      0.68222       8488.9597872      -8496.2276737        -7.2678865
    3.960      0.69323       8418.1718717      -8428.2999487       -10.1280770
    4.140      0.69127       8346.0465551      -8359.6947640       -13.6482089
    4.320      0.67926       8273.1237714      -8290.2110840       -17.0873127
    4.500      0.66815       8198.8432256      -8218.4694534       -19.6262278
    4.680      0.66498       8123.8325466      -8144.3697095       -20.5371629
    4.860      0.67099       8047.4585937      -8067.0181535       -19.5595598
    5.040      0.68397       7970.3695996      -7987.3485620       -16.9789624
    5.220      0.69595       7891.8772545      -7905.4136016       -13.5363471
    5.400      0.69574       7812.6374230      -7822.6875721       -10.0501491
    5.580      0.68115       7731.9818719      -7739.2340178        -7.2521459
    5.760      0.66425       7650.5884387      -7656.2575038        -5.6690651
    5.940      0.65918       7567.8449561      -7573.5750149        -5.7300588
    6.120      0.66735       7484.3676879      -7491.7815843        -7.4138964
    6.300      0.67769       7399.5726167      -7409.8380196       -10.2654029
    6.480      0.68107       7313.9746130      -7327.7236412       -13.7490282
    6.660      0.68025       7227.0883051      -7244.2153437       -17.1270385
    6.840      0.68246       7139.3370332      -7158.9377980       -19.6007648
    7.020      0.68723       7050.3568723      -7070.8182484       -20.4613761
    7.200      0.68611       6960.4341781      -6979.9020261       -19.4678479
    7.380      0.66841       6869.3520185      -6886.2479306       -16.8959120
    7.560      0.62398       6777.2829208      -6790.7258438       -13.4429230
    7.740      0.54781       6684.2329589      -6694.0721652        -9.8392063
    7.920      0.44713       6590.3020335      -6597.0096487        -6.7076152
    8.100      0.34006       6495.7460433      -6500.3293281        -4.5832849
    8.280      0.24429       6400.5445555      -6404.0413348        -3.4967793
    8.460      0.16842       6305.1143036      -6307.9794500        -2.8651464
    8.640      0.11265       6209.2232349      -6211.5715236        -2.3482887
    8.820      0.07359       6113.3888533      -6115.3966204        -2.0077671
    9.000      0.04725       6017.1662096      -6018.9460748        -1.7798652
    9.180      0.03004       5921.1754050      -5922.8042920        -1.6288871
    9.360      0.01900       5824.7980772      -5826.3224054        -1.5243283
    9.540      0.01196       5728.7584113      -5730.2089048        -1.4504935
    9.720      0.00751       5632.3065914      -5633.7021027        -1.3955112
    9.900      0.00472       5536.2573859      -5537.6096870        -1.3523011
   10.080      0.00297       5439.7690447      -5441.0860120        -1.3169673
   10.260      0.00186       5343.7201243      -5345.0059322        -1.2858078
   10.440      0.00117       5247.2164849      -5248.4747358        -1.2582509
   10.620      0.00073       5151.1653054      -5152.3971320        -1.2318266
   10.800      0.00046       5054.6613527      -5055.8686868        -1.2073341
   10.980      0.00029       4958.6002008      -4959.7829730        -1.1827722
   11.160      0.00018       4862.1085990      -4863.2680785        -1.1594794
   11.340      0.00011       4766.0276840      -4767.1633448        -1.1356608
   11.520      0.00007       4669.5600942      -4670.6729177        -1.1128235
   11.700      0.00004       4573.4490303      -4574.5383456        -1.0893153
   11.880      0.00003       4477.0163645      -4478.0830014        -1.0666370
   12.060      0.00002       4380.8650075      -4381.9082821        -1.0432746
   12.240      0.00001       4284.4772856      -4285.4979204        -1.0206348
   12.420      0.00001       4188.2763071      -4189.2736621        -0.9973550
   12.600      0.00000       4091.9423643      -4092.9170677        -0.9747033
   12.780      0.00000       3995.6836979      -3996.6351810        -0.9514832
   12.960      0.00000       3899.4108617      -3900.3396623        -0.9288006
   13.140      0.00000       3803.0880718      -3803.9937028        -0.9056310
   13.320      0.00000       3706.8818590      -3707.7647690        -0.8829100
   13.500      0.00000       3610.4904419      -3611.3502283        -0.8597864
   13.680      0.00000       3514.3543049      -3515.1913299        -0.8370249
   13.860      0.00000       3417.8919194      -3418.7058635        -0.8139440
   14.040      0.00000       3321.8270571      -3322.6182003        -0.7911432
   14.220      0.00000       3225.2936800      -3226.0617817        -0.7681017
   14.400      0.00000       3129.2989244      -3130.0441882        -0.7452639
   14.580      0.00000       3032.6969251      -3033.4191833        -0.7222582
   14.760      0.00000       2936.7687091      -2937.4680960        -0.6993869
   14.940      0.00000       2840.1028396      -2840.7792527        -0.6764131
   15.120      0.00000       2744.2352504      -2744.8887626        -0.6535122
   15.300      0.00000       2647.5125510      -2648.1431169        -0.6305660
   15.480      0.00000       2551.6974657      -2552.3051055        -0.6076398
   15.660      0.00000       2454.9270874      -2455.5118043        -0.5847168
   15.840      0.00000       2359.1543903      -2359.7161601        -0.5617697
   16.020      0.00000       2262.3473412      -2262.8862068        -0.5388656
   16.200      0.00000       2166.6052132      -2167.1211151        -0.5159019
   16.380      0.00000       2069.7740346      -2070.2670470        -0.4930124
   16.560      0.00000       1974.0493075      -1974.5193436        -0.4700362
   16.740      0.00000       1877.2076930      -1877.6548502        -0.4471572
   16.920      0.00000       1781.4862549      -1781.9104273        -0.4241725
   17.100      0.00000       1684.6486233      -1685.0499236        -0.4013002
   17.280      0.00000       1588.9158629      -1589.2941736        -0.3783107
   17.460      0.00000       1492.0969012      -1492.4523428        -0.3554416
   17.640      0.00000       1396.3381743      -1396.6706249        -0.3324505
   17.820      0.00000       1299.5523652      -1299.8619467        -0.3095815
   18.000      0.00000       1203.7534683      -1204.0400603        -0.2865920
   18.180      0.00000       1107.0146202      -1107.2783403        -0.2637201
   18.360      0.00000       1011.1622532      -1011.4029879        -0.2407347
   18.540      0.00000        914.4830485       -914.7009061        -0.2178576
   18.720      0.00000        818.5652514       -818.7601300        -0.1948786
   18.900      0.00000        721.9568286       -722.1288229        -0.1719942
   19.080      0.00000        625.9633768       -626.1124002        -0.1490234
   19.260      0.00000        529.4349619       -529.5610921        -0.1261301
   19.440      0.00000        433.3577047       -433.4608736        -0.1031689
   19.620      0.00000        806.3365252       -806.4804014        -0.1438762
   19.800      0.00000       1949.9202700      -1950.2094178        -0.2891478
   19.980      0.00000       3610.8863763      -3611.3915280        -0.5051517
   20.160      0.00000       5536.7428170      -5537.5007293        -0.7579123


     convergence has been achieved in  46 iterations

     Forces acting on atoms (Ry/au):

     atom    1 type  1   force =    -0.00000550   -0.00000349   -0.00167691
     atom    2 type  1   force =    -0.00000068   -0.00000021    0.00660261
     atom    3 type  1   force =    -0.00000005   -0.00000067   -0.00533005
     atom    4 type  1   force =     0.00000058    0.00000067    0.00005492
     atom    5 type  1   force =     0.00000044    0.00000059    0.00547361
     atom    6 type  1   force =    -0.00000041    0.00000041   -0.00697619
     atom    7 type  1   force =     0.00000564    0.00000271    0.00185201

     Total force =     0.012525     Total SCF correction =     0.001351
     SCF correction compared to forces is large: reduce conv_thr to get better values

     Writing output data file Al111.save

     init_run     :      0.45s CPU      0.51s WALL (       1 calls)
     electrons    :     41.36s CPU     46.82s WALL (       1 calls)
     forces       :      0.11s CPU      0.12s WALL (       1 calls)

     Called by init_run:
     wfcinit      :      0.37s CPU      0.42s WALL (       1 calls)
     potinit      :      0.03s CPU      0.04s WALL (       1 calls)

     Called by electrons:
     c_bands      :     37.59s CPU     41.63s WALL (      46 calls)
     sum_band     :      2.93s CPU      3.04s WALL (      46 calls)
     v_of_rho     :      0.39s CPU      0.39s WALL (      47 calls)
     mix_rho      :      0.06s CPU      0.06s WALL (      46 calls)

     Called by c_bands:
     init_us_2    :      0.54s CPU      0.52s WALL (    3196 calls)
     cegterg      :     36.50s CPU     38.45s WALL (    1592 calls)

     Called by *egterg:
     h_psi        :     20.45s CPU     21.58s WALL (    8100 calls)
     g_psi        :      0.35s CPU      0.33s WALL (    6474 calls)
     cdiaghg      :      7.30s CPU      7.33s WALL (    8066 calls)

     Called by h_psi:
     add_vuspsi   :      1.73s CPU      1.73s WALL (    8100 calls)

     General routines
     calbec       :      2.56s CPU      3.20s WALL (    8134 calls)
     fft          :      0.10s CPU      0.09s WALL (     520 calls)
     fftw         :     17.25s CPU     17.71s WALL (  163250 calls)
     davcio       :      0.02s CPU      1.60s WALL (    4760 calls)

     Parallel routines
     fft_scatter  :      5.94s CPU      6.23s WALL (  163770 calls)

     PWSCF        :    42.05s CPU        48.03s WALL


   This run was terminated on:  23:32:41   5Oct2011            

=------------------------------------------------------------------------------=
   JOB DONE.
=------------------------------------------------------------------------------=
