
     Program PWSCF v.> 4.2      starts on 28Jan2011 at 15:39:47 

     This program is part of the open-source Quantum ESPRESSO suite
     for quantum simulation of materials; please cite
         "P. Giannozzi et al., J. Phys.:Condens. Matter 21 395502 (2009);
          URL http://www.quantum-espresso.org", 
     in publications or presentations arising from this work. More details at
     http://www.quantum-espresso.org/wiki/index.php/Citing_Quantum-ESPRESSO

     Parallel version (MPI), running on     4 processors
     R & G space division:  proc/pool =    4

     Current dimensions of program PWSCF are:
     Max number of different atomic species (ntypx) = 10
     Max number of k-points (npk) =  40000
     Max angular momentum in pseudopotentials (lmaxx) =  3
     Waiting for input...
     file H.pbe-rrkjus.UPF: wavefunction(s)  1S renormalized
     file O.pbe-rrkjus.UPF: wavefunction(s)  2S renormalized

     Subspace diagonalization in iterative solution of the eigenvalue problem:
     a serial algorithm will be used


     Planes per process (thick) : nr3 = 120 npp =   30 ncplane =  9216
     Planes per process (smooth): nr3s=  80 npps=   20 ncplanes=  4096
 
     Proc/  planes cols     G    planes cols    G      columns  G
     Pool       (dense grid)       (smooth grid)      (wavefct grid)
        1    30   1594   114646   20    796    40538    210     5506
        2    30   1591   114645   20    795    40525    212     5508
        3    30   1591   114645   20    795    40525    212     5508
        4    30   1593   114645   20    795    40525    211     5505
     tot    120   6369   458581   80   3181   162113    845    22027
 


     bravais-lattice index     =            6
     lattice parameter (a_0)   =      20.0000  a.u.
     unit-cell volume          =    9600.0000 (a.u.)^3
     number of atoms/cell      =            3
     number of atomic types    =            2
     number of electrons       =         8.00
     number of Kohn-Sham states=            8
     kinetic-energy cutoff     =      25.0000  Ry
     charge density cutoff     =     200.0000  Ry
     convergence threshold     =      1.0E-06
     mixing beta               =       0.7000
     number of iterations used =            8  plain     mixing
     Exchange-correlation      =  SLA  PW   PBE  PBE (1434)
     EXX-fraction              =        0.00

     Effective Screening Medium Method
     =================================
     field strength (Ry/a.u.)         =       0.00 
     ESM offset from cell edge (a.u.) =       0.00 
     grid points for fit at edges     =          4 
     Boundary Conditions: Vacuum-Slab-Vacuum
 

     celldm(1)=  20.000000  celldm(2)=   0.000000  celldm(3)=   1.200000
     celldm(4)=   0.000000  celldm(5)=   0.000000  celldm(6)=   0.000000

     crystal axes: (cart. coord. in units of a_0)
               a(1) = (   1.000000   0.000000   0.000000 )  
               a(2) = (   0.000000   1.000000   0.000000 )  
               a(3) = (   0.000000   0.000000   1.200000 )  

     reciprocal axes: (cart. coord. in units 2 pi/a_0)
               b(1) = (  1.000000  0.000000  0.000000 )  
               b(2) = (  0.000000  1.000000  0.000000 )  
               b(3) = (  0.000000  0.000000  0.833333 )  


     PseudoPot. # 1 for H  read from file H.pbe-rrkjus.UPF
     MD5 check sum: 7cc9d459525c9a0585f487a71c3c9563
     Pseudo is Ultrasoft, Zval =  1.0
     Generated by new atomic code, or converted to UPF format
     Using radial grid of 1061 points,  2 beta functions with: 
                l(1) =   0
                l(2) =   0
     Q(r) pseudized with 0 coefficients 


     PseudoPot. # 2 for O  read from file O.pbe-rrkjus.UPF
     MD5 check sum: 390ba29e75625707450f3bd3f0eb6be9
     Pseudo is Ultrasoft, Zval =  6.0
     Generated by new atomic code, or converted to UPF format
     Using radial grid of 1269 points,  4 beta functions with: 
                l(1) =   0
                l(2) =   0
                l(3) =   1
                l(4) =   1
     Q(r) pseudized with 0 coefficients 


     atomic species   valence    mass     pseudopotential
        H              1.00     1.00794     H ( 1.00)
        O              6.00    55.84700     O ( 1.00)

     No symmetry found

   Cartesian axes

     site n.     atom                  positions (a_0 units)
         1           O   tau(  1) = (   0.0000000   0.5000000   0.0000000  )
         2           H   tau(  2) = (   0.0431388   0.4310286   0.0430783  )
         3           H   tau(  3) = (   0.0366354   0.5764064   0.0359492  )

     number of k points=     5  gaussian smearing, width (Ry)=  0.0500
                       cart. coord. in units 2pi/a_0
        k(    1) = (   0.0000000   0.0000000   0.0000000), wk =   1.0000000
        k(    2) = (   0.2500000   0.2500000   0.2500000), wk =   0.2500000
        k(    3) = (  -0.2500000  -0.2500000   0.2500000), wk =   0.2500000
        k(    4) = (  -0.2500000   0.2500000  -0.2500000), wk =   0.2500000
        k(    5) = (   0.2500000  -0.2500000  -0.2500000), wk =   0.2500000

     G cutoff = 2026.4237  ( 458581 G-vectors)     FFT grid: ( 96, 96,120)
     G cutoff = 1013.2118  ( 162113 G-vectors)  smooth grid: ( 64, 64, 80)

     Largest allocated arrays     est. size (Mb)     dimensions
        Kohn-Sham Wavefunctions         0.62 Mb     (   5086,   8)
        NL pseudopotentials             0.93 Mb     (   5086,  12)
        Each V/rho on FFT grid          4.22 Mb     ( 276480)
        Each G-vector array             0.87 Mb     ( 114646)
        G-vector shells                 0.09 Mb     (  12144)
     Largest temporary arrays     est. size (Mb)     dimensions
        Auxiliary wavefunctions         2.48 Mb     (   5086,  32)
        Each subspace H/S matrix        0.02 Mb     (     32,  32)
        Each <psi_i|beta_j> matrix      0.00 Mb     (     12,   8)
        Arrays for rho mixing          33.75 Mb     ( 276480,   8)

     Initial potential from superposition of free atoms
     Check: negative starting charge=   -0.001104

     starting charge    7.80759, renormalised to    8.00000

     negative rho (up, down):  0.113E-02 0.000E+00
     Starting wfc are    6 atomic +    2 random wfc

     total cpu time spent up to now is      3.66 secs

     per-process dynamical memory:    59.4 Mb

     Self-consistent Calculation

     iteration #  1     ecut=    25.00 Ry     beta=0.70
     Davidson diagonalization with overlap
     ethr =  1.00E-02,  avg # of iterations =  7.4

     negative rho (up, down):  0.427E-03 0.000E+00

     total cpu time spent up to now is      6.12 secs

     total energy              =     -34.06700094 Ry
     Harris-Foulkes estimate   =     -34.57442391 Ry
     estimated scf accuracy    <       0.66488926 Ry

     iteration #  2     ecut=    25.00 Ry     beta=0.70
     Davidson diagonalization with overlap
     ethr =  8.31E-03,  avg # of iterations =  2.6

     negative rho (up, down):  0.965E-02 0.000E+00

     total cpu time spent up to now is      8.11 secs

     total energy              =     -34.15794883 Ry
     Harris-Foulkes estimate   =     -34.36258841 Ry
     estimated scf accuracy    <       0.40382888 Ry

     iteration #  3     ecut=    25.00 Ry     beta=0.70
     Davidson diagonalization with overlap
     ethr =  5.05E-03,  avg # of iterations =  2.0

     negative rho (up, down):  0.766E-03 0.000E+00

     total cpu time spent up to now is      9.96 secs

     total energy              =     -34.24917036 Ry
     Harris-Foulkes estimate   =     -34.25772977 Ry
     estimated scf accuracy    <       0.01663276 Ry

     iteration #  4     ecut=    25.00 Ry     beta=0.70
     Davidson diagonalization with overlap
     ethr =  2.08E-04,  avg # of iterations =  7.6

     negative rho (up, down):  0.356E-03 0.000E+00

     total cpu time spent up to now is     12.39 secs

     total energy              =     -34.25308004 Ry
     Harris-Foulkes estimate   =     -34.25307477 Ry
     estimated scf accuracy    <       0.00013578 Ry

     iteration #  5     ecut=    25.00 Ry     beta=0.70
     Davidson diagonalization with overlap
     ethr =  1.70E-06,  avg # of iterations = 12.2

     negative rho (up, down):  0.279E-03 0.000E+00

     total cpu time spent up to now is     15.37 secs

     total energy              =     -34.25312812 Ry
     Harris-Foulkes estimate   =     -34.25311226 Ry
     estimated scf accuracy    <       0.00000637 Ry

     iteration #  6     ecut=    25.00 Ry     beta=0.70
     Davidson diagonalization with overlap
     ethr =  7.97E-08,  avg # of iterations =  3.8

     negative rho (up, down):  0.299E-03 0.000E+00

     total cpu time spent up to now is     17.53 secs

     total energy              =     -34.25312872 Ry
     Harris-Foulkes estimate   =     -34.25312914 Ry
     estimated scf accuracy    <       0.00000108 Ry

     iteration #  7     ecut=    25.00 Ry     beta=0.70
     Davidson diagonalization with overlap
     ethr =  1.36E-08,  avg # of iterations =  2.0

     negative rho (up, down):  0.288E-03 0.000E+00

     total cpu time spent up to now is     19.21 secs

     End of self-consistent calculation

          k = 0.0000 0.0000 0.0000 ( 20303 PWs)   bands (ev):

   -25.3520 -13.1506  -9.2688  -7.2478  -1.1025   0.1203   0.5249   0.5608

          k = 0.2500 0.2500 0.2500 ( 20274 PWs)   bands (ev):

   -25.3519 -13.1502  -9.2682  -7.2471  -1.0460   0.1180   0.2989   0.4543

          k =-0.2500-0.2500 0.2500 ( 20274 PWs)   bands (ev):

   -25.3519 -13.1502  -9.2683  -7.2474  -1.0460   0.1096   0.3104   0.4642

          k =-0.2500 0.2500-0.2500 ( 20274 PWs)   bands (ev):

   -25.3519 -13.1503  -9.2682  -7.2471  -1.0459   0.1057   0.3143   0.4608

          k = 0.2500-0.2500-0.2500 ( 20274 PWs)   bands (ev):

   -25.3519 -13.1503  -9.2683  -7.2474  -1.0459   0.1107   0.2981   0.4791

     the Fermi energy is    -4.1746 ev

!    total energy              =     -34.25312871 Ry
     Harris-Foulkes estimate   =     -34.25312899 Ry
     estimated scf accuracy    <       0.00000018 Ry

     The total energy is the sum of the following terms:

     one-electron contribution =     -57.03212012 Ry
     hartree contribution      =      29.91611001 Ry
     xc contribution           =      -8.39407229 Ry
     ewald contribution        =       1.25695369 Ry
     smearing contrib. (-TS)   =       0.00000000 Ry

     ESM Charge and Potential
     ========================

    z (A)      rho (e)      Avg v_hartree        Avg v_local  Avg v_hart+v_loc
                                   (eV/A)             (eV/A)            (eV/A)
    ==========================================================================
   -6.244      0.00000        -75.1157442         75.2654823         0.1497381
   -6.138      0.00000        -74.9100100         75.1901488         0.2801388
   -6.033      0.00000        -74.2987842         74.6714651         0.3726809
   -5.927      0.00000        -73.2428422         73.6503347         0.4074924
   -5.821      0.00000        -71.9504261         72.3581435         0.4077174
   -5.715      0.00000        -70.6578879         71.0653801         0.4074923
   -5.609      0.00000        -69.3658261         69.7735277         0.4077017
   -5.503      0.00000        -68.0729609         68.4804715         0.4075107
   -5.398      0.00000        -66.7811846         67.1888541         0.4076695
   -5.292      0.00000        -65.4880908         65.8956294         0.4075386
   -5.186      0.00000        -64.1964780         64.6041092         0.4076312
   -5.080      0.00000        -62.9032943         63.3108600         0.4075657
   -4.974      0.00001        -61.6116976         62.0192944         0.4075968
   -4.868      0.00000        -60.3185718         60.7261545         0.4075826
   -4.763      0.00001        -59.0268515         59.4344243         0.4075729
   -4.657      0.00001        -57.7339081         58.1414920         0.4075839
   -4.551      0.00001        -56.4419616         56.8495231         0.4075615
   -4.445      0.00001        -55.1492761         55.5568464         0.4075704
   -4.339      0.00001        -53.8570587         54.2646187         0.4075599
   -4.233      0.00001        -52.5646445         52.9721909         0.4075464
   -4.128      0.00001        -51.2721749         51.6797356         0.4075608
   -4.022      0.00001        -49.9799854         50.3875043         0.4075189
   -3.916      0.00002        -48.6873354         49.0948908         0.4075554
   -3.810      0.00003        -47.3952803         47.8027748         0.4074944
   -3.704      0.00003        -46.1025548         46.5100906         0.4075358
   -3.598      0.00004        -44.8105266         45.2180013         0.4074747
   -3.493      0.00006        -43.5178360         43.9253311         0.4074951
   -3.387      0.00007        -42.2257377         42.6331922         0.4074545
   -3.281      0.00010        -40.9331706         41.3406005         0.4074298
   -3.175      0.00015        -39.6409407         40.0483618         0.4074211
   -3.069      0.00022        -38.3485492         38.7558830         0.4073339
   -2.963      0.00030        -37.0561807         37.4635261         0.4073454
   -2.858      0.00040        -35.7639770         36.1711634         0.4071864
   -2.752      0.00055        -34.4715195         34.8786990         0.4071795
   -2.646      0.00078        -33.1794847         33.5864301         0.4069454
   -2.540      0.00113        -31.8870420         32.2938893         0.4068474
   -2.434      0.00164        -30.5951653         31.0016770         0.4065116
   -2.328      0.00232        -29.3029098         29.7091005         0.4061907
   -2.223      0.00322        -28.0112478         28.4169034         0.4056556
   -2.117      0.00449        -26.7194292         27.1243310         0.4049018
   -2.011      0.00639        -25.4281685         25.8321125         0.4039440
   -1.905      0.00928        -24.1371802         24.5395772         0.4023970
   -1.799      0.01348        -22.8468180         23.2473087         0.4004906
   -1.693      0.01935        -21.5574401         21.9548354         0.3973953
   -1.588      0.02751        -20.2691078         20.6624947         0.3933869
   -1.482      0.03934        -18.9828814         19.3701045         0.3872232
   -1.376      0.05719        -17.6988552         18.0776702         0.3788150
   -1.270      0.08440        -16.4189833         16.7853874         0.3664041
   -1.164      0.12501        -15.1442272         15.4928292         0.3486020
   -1.058      0.18425        -13.8780277         14.2006945         0.3226668
   -0.953      0.27093        -12.6235613         12.9079530         0.2843917
   -0.847      0.40130        -11.3870689         11.6160724         0.2290035
   -0.741      0.60128        -10.1767494         10.3229161         0.1461667
   -0.635      0.90262         -9.0058496          9.0341286         0.0282790
   -0.529      1.34586         -7.8941278          7.7427000        -0.1514278
   -0.423      1.96453         -6.8701534          6.4244610        -0.4456924
   -0.318      2.69288         -5.9740504          5.1222381        -0.8518123
   -0.212      3.29948         -5.2509564          3.9750577        -1.2758988
   -0.106      3.60114         -4.7396965          3.1124715        -1.6272250
    0.000      3.72614         -4.4597922          2.6000448        -1.8597474
    0.106      3.83617         -4.4210642          2.4536219        -1.9674423
    0.212      3.77836         -4.6290215          2.6772287        -1.9517928
    0.318      3.38194         -5.0794386          3.2824510        -1.7969876
    0.423      2.75152         -5.7469836          4.1901133        -1.5568703
    0.529      2.08520         -6.5921911          5.2719267        -1.3202644
    0.635      1.49917         -7.5726781          6.4716509        -1.1010272
    0.741      1.03802         -8.6505366          7.7592502        -0.8912864
    0.847      0.70655         -9.7964515          9.0647949        -0.7316567
    0.953      0.48117        -10.9882578         10.3551173        -0.6331405
    1.058      0.32885        -12.2119262         11.6474087        -0.5645174
    1.164      0.22482        -13.4567143         12.9394286        -0.5172857
    1.270      0.15329        -14.7165696         14.2320421        -0.4845276
    1.376      0.10455        -15.9861375         15.5243590        -0.4617785
    1.482      0.07193        -17.2627855         16.8166683        -0.4461172
    1.588      0.05017        -18.5439999         18.1092603        -0.4347396
    1.693      0.03536        -19.8285226         19.4013390        -0.4271835
    1.799      0.02491        -21.1154389         20.6941106        -0.4213282
    1.905      0.01744        -22.4037852         21.9860687        -0.4177165
    2.011      0.01216        -23.6935632         23.2788996        -0.4146635
    2.117      0.00857        -24.9837681         24.5708604        -0.4129076
    2.223      0.00613        -26.2749487         25.8636297        -0.4113190
    2.328      0.00445        -27.5660984         27.1557050        -0.4103934
    2.434      0.00320        -28.8579501         28.4483159        -0.4096342
    2.540      0.00226        -30.1496504         29.7405822        -0.4090682
    2.646      0.00158        -31.4417749         31.0329829        -0.4087920
    2.752      0.00112        -32.7338346         32.3254646        -0.4083700
    2.858      0.00082        -34.0260100         33.6176596        -0.4083504
    2.963      0.00060        -35.3183297         34.9103241        -0.4080056
    3.069      0.00045        -36.6104655         36.2023720        -0.4080935
    3.175      0.00031        -37.9029730         37.4951385        -0.4078345
    3.281      0.00022        -39.1950608         38.7871373        -0.4079236
    3.387      0.00015        -40.4876700         40.0798968        -0.4077731
    3.493      0.00012        -41.7797527         41.3719589        -0.4077938
    3.598      0.00009        -43.0723676         42.6646028        -0.4077648
    3.704      0.00007        -44.3645178         43.9568259        -0.4076919
    3.810      0.00005        -45.6570481         45.2492739        -0.4077742
    3.916      0.00003        -46.9493365         46.5417151        -0.4076214
    4.022      0.00003        -48.2417139         47.8339376        -0.4077763
    4.128      0.00002        -49.5341824         49.1265964        -0.4075861
    4.233      0.00002        -50.8263807         50.4186246        -0.4077561
    4.339      0.00001        -52.1190265         51.7114399        -0.4075866
    4.445      0.00001        -53.4110721         53.0033615        -0.4077106
    4.551      0.00001        -54.7038416         54.2962240        -0.4076176
    4.657      0.00001        -55.9958101         55.5881639        -0.4076461
    4.763      0.00001        -57.2886070         56.8809401        -0.4076669
    4.868      0.00001        -58.5806074         58.1730324        -0.4075750
    4.974      0.00001        -59.8733145         59.4655959        -0.4077186
    5.080      0.00000        -61.1654641         60.7579514        -0.4075127
    5.186      0.00001        -62.4579711         62.0502139        -0.4077572
    5.292      0.00000        -63.7503655         63.3428927        -0.4074727
    5.398      0.00000        -65.0425976         64.6348266        -0.4077710
    5.503      0.00000        -66.3352848         65.9278216        -0.4074633
    5.609      0.00000        -67.6272243         67.2194694        -0.4077549
    5.715      0.00000        -68.9201894         68.5127041        -0.4074853
    5.821      0.00000        -70.2118842         69.8041717        -0.4077125
    5.927      0.00000        -71.5050478         71.0975150        -0.4075327
    6.033      0.00000        -72.7097422         72.3371177        -0.3726245
    6.138      0.00000        -73.7152283         73.4350123        -0.2802160
    6.244      0.00000        -74.4774240         74.3277727        -0.1496514
    6.350      0.00000        -74.9588464         74.9588008        -0.0000455
 

     convergence has been achieved in   7 iterations

     Forces acting on atoms (Ry/au):

     atom   1 type  2   force =    -0.00048015   -0.00017572    0.00061879
     atom   2 type  1   force =     0.00021683   -0.00006316   -0.00033105
     atom   3 type  1   force =     0.00026332    0.00023888   -0.00028774

     Total force =     0.000457     Total SCF correction =     0.000071

     Writing output data file H2O.save
 
     init_run     :      3.28s CPU      3.48s WALL (       1 calls)
     electrons    :     13.84s CPU     15.99s WALL (       1 calls)
     forces       :      2.44s CPU      2.47s WALL (       1 calls)

     Called by init_run:
     wfcinit      :      0.24s CPU      0.30s WALL (       1 calls)
     potinit      :      1.21s CPU      1.26s WALL (       1 calls)

     Called by electrons:
     c_bands      :      6.14s CPU      7.00s WALL (       7 calls)
     sum_band     :      2.07s CPU      2.29s WALL (       7 calls)
     v_of_rho     :      4.10s CPU      4.39s WALL (       8 calls)
     newd         :      1.03s CPU      1.24s WALL (       8 calls)
     mix_rho      :      0.21s CPU      0.24s WALL (       7 calls)

     Called by c_bands:
     init_us_2    :      0.19s CPU      0.20s WALL (      80 calls)
     cegterg      :      5.98s CPU      6.78s WALL (      35 calls)

     Called by *egterg:
     h_psi        :      5.16s CPU      5.89s WALL (     228 calls)
     s_psi        :      0.07s CPU      0.08s WALL (     228 calls)
     g_psi        :      0.12s CPU      0.11s WALL (     188 calls)
     cdiaghg      :      0.07s CPU      0.08s WALL (     223 calls)

     Called by h_psi:
     add_vuspsi   :      0.08s CPU      0.08s WALL (     228 calls)

     General routines
     calbec       :      0.17s CPU      0.16s WALL (     268 calls)
     fft          :      1.45s CPU      1.64s WALL (     128 calls)
     ffts         :      0.04s CPU      0.04s WALL (      15 calls)
     fftw         :      4.44s CPU      5.34s WALL (    2478 calls)
     interpolate  :      0.23s CPU      0.28s WALL (      15 calls)
     davcio       :      0.00s CPU      0.08s WALL (     115 calls)
 
     Parallel routines
     fft_scatter  :      1.03s CPU      1.69s WALL (    2621 calls)
 
     PWSCF        :    19.73s CPU        22.49s WALL

 
   This run was terminated on:  15:40:10  28Jan2011            

=------------------------------------------------------------------------------=
   JOB DONE.
=------------------------------------------------------------------------------=
