
     Program PWSCF v.4.3.2      starts on 11Aug2011 at 16: 6:26 

     This program is part of the open-source Quantum ESPRESSO suite
     for quantum simulation of materials; please cite
         "P. Giannozzi et al., J. Phys.:Condens. Matter 21 395502 (2009);
          URL http://www.quantum-espresso.org", 
     in publications or presentations arising from this work. More details at
     http://www.quantum-espresso.org/quote.php

     Parallel version (MPI), running on    12 processors
     R & G space division:  proc/pool =   12

     Current dimensions of program PWSCF are:
     Max number of different atomic species (ntypx) = 10
     Max number of k-points (npk) =  40000
     Max angular momentum in pseudopotentials (lmaxx) =  3
     Waiting for input...
     Reading input from stdin
               file H.pbe-rrkjus.UPF: wavefunction(s)  1S renormalized
               file O.pbe-rrkjus.UPF: wavefunction(s)  2S renormalized

     gamma-point specific algorithms are used

     Subspace diagonalization in iterative solution of the eigenvalue problem:
     a serial algorithm will be used

 
     Parallelization info
     --------------------
     sticks:   dense  smooth     PW     G-vecs:    dense   smooth      PW
     Min         530     264     65                38213    13474    1690
     Max         534     266     68                38218    13546    1700
     Sum        6369    3181    793               458581   162113   20303
     Tot        3185    1591    397
 


     bravais-lattice index     =            6
     lattice parameter (alat)  =      20.0000  a.u.
     unit-cell volume          =    9600.0000 (a.u.)^3
     number of atoms/cell      =            3
     number of atomic types    =            2
     number of electrons       =         8.00
     number of Kohn-Sham states=            8
     kinetic-energy cutoff     =      25.0000  Ry
     charge density cutoff     =     200.0000  Ry
     convergence threshold     =      1.0E-06
     mixing beta               =       0.5000
     number of iterations used =            8  plain     mixing
     Exchange-correlation      =  SLA  PW   PBE  PBE ( 1 4 3 4 0)
     EXX-fraction              =        0.00

     Effective Screening Medium Method
     =================================
     field strength (Ry/a.u.)         =       0.00 
     ESM offset from cell edge (a.u.) =       0.00 
     grid points for fit at edges     =          4 
     Ordinary Periodic Boundary Conditions
 

     celldm(1)=  20.000000  celldm(2)=   0.000000  celldm(3)=   1.200000
     celldm(4)=   0.000000  celldm(5)=   0.000000  celldm(6)=   0.000000

     crystal axes: (cart. coord. in units of alat)
               a(1) = (   1.000000   0.000000   0.000000 )  
               a(2) = (   0.000000   1.000000   0.000000 )  
               a(3) = (   0.000000   0.000000   1.200000 )  

     reciprocal axes: (cart. coord. in units 2 pi/alat)
               b(1) = (  1.000000  0.000000  0.000000 )  
               b(2) = (  0.000000  1.000000  0.000000 )  
               b(3) = (  0.000000  0.000000  0.833333 )  


     PseudoPot. # 1 for H  read from file:
     /p/lscratcha/wood37/data/esm_code_081011/espresso/pseudo/H.pbe-rrkjus.UPF
     MD5 check sum: 7cc9d459525c9a0585f487a71c3c9563
     Pseudo is Ultrasoft, Zval =  1.0
     Generated by new atomic code, or converted to UPF format
     Using radial grid of 1061 points,  2 beta functions with: 
                l(1) =   0
                l(2) =   0
     Q(r) pseudized with 0 coefficients 


     PseudoPot. # 2 for O  read from file:
     /p/lscratcha/wood37/data/esm_code_081011/espresso/pseudo/O.pbe-rrkjus.UPF
     MD5 check sum: 390ba29e75625707450f3bd3f0eb6be9
     Pseudo is Ultrasoft, Zval =  6.0
     Generated by new atomic code, or converted to UPF format
     Using radial grid of 1269 points,  4 beta functions with: 
                l(1) =   0
                l(2) =   0
                l(3) =   1
                l(4) =   1
     Q(r) pseudized with 0 coefficients 


     atomic species   valence    mass     pseudopotential
        H              1.00     1.00794     H ( 1.00)
        O              6.00    55.84700     O ( 1.00)

     No symmetry found

   Cartesian axes

     site n.     atom                  positions (alat units)
         1           O   tau(   1) = (   0.0000000   0.5000000   0.0000000  )
         2           H   tau(   2) = (   0.0431388   0.4310286   0.0430783  )
         3           H   tau(   3) = (   0.0366354   0.5764064   0.0359492  )

     number of k points=     1  gaussian smearing, width (Ry)=  0.0500
                       cart. coord. in units 2pi/alat
        k(    1) = (   0.0000000   0.0000000   0.0000000), wk =   2.0000000

     Dense  grid:   229291 G-vectors     FFT dimensions: (  96,  96, 120)

     Smooth grid:    81057 G-vectors     FFT dimensions: (  64,  64,  80)

     Largest allocated arrays     est. size (Mb)     dimensions
        Kohn-Sham Wavefunctions         0.10 Mb     (    847,    8)
        NL pseudopotentials             0.16 Mb     (    847,   12)
        Each V/rho on FFT grid          1.41 Mb     (  92160)
        Each G-vector array             0.15 Mb     (  19109)
        G-vector shells                 0.05 Mb     (   6417)
     Largest temporary arrays     est. size (Mb)     dimensions
        Auxiliary wavefunctions         0.21 Mb     (    847,   32)
        Each subspace H/S matrix        0.01 Mb     (  32,  32)
        Each <psi_i|beta_j> matrix      0.00 Mb     (     12,    8)
        Arrays for rho mixing          11.25 Mb     (  92160,   8)

     Initial potential from superposition of free atoms
     Check: negative starting charge=   -0.001104

     starting charge    7.80759, renormalised to    8.00000

     negative rho (up, down):  0.113E-02 0.000E+00
     Starting wfc are    6 atomic +    2 random wfc

     total cpu time spent up to now is        1.6 secs

     per-process dynamical memory:    31.6 Mb

     Self-consistent Calculation

     iteration #  1     ecut=    25.00 Ry     beta=0.50
     Davidson diagonalization with overlap
     ethr =  1.00E-02,  avg # of iterations =  6.0

     negative rho (up, down):  0.623E-03 0.000E+00

     total cpu time spent up to now is        2.1 secs

     total energy              =     -34.15557184 Ry
     Harris-Foulkes estimate   =     -34.57481913 Ry
     estimated scf accuracy    <       0.66669552 Ry

     iteration #  2     ecut=    25.00 Ry     beta=0.50
     Davidson diagonalization with overlap
     ethr =  8.33E-03,  avg # of iterations =  2.0

     negative rho (up, down):  0.150E-02 0.000E+00

     total cpu time spent up to now is        2.5 secs

     total energy              =     -34.24883149 Ry
     Harris-Foulkes estimate   =     -34.29905044 Ry
     estimated scf accuracy    <       0.11997786 Ry

     iteration #  3     ecut=    25.00 Ry     beta=0.50
     Davidson diagonalization with overlap
     ethr =  1.50E-03,  avg # of iterations =  2.0

     negative rho (up, down):  0.127E-02 0.000E+00

     total cpu time spent up to now is        2.9 secs

     total energy              =     -34.25169975 Ry
     Harris-Foulkes estimate   =     -34.26169378 Ry
     estimated scf accuracy    <       0.01766025 Ry

     iteration #  4     ecut=    25.00 Ry     beta=0.50
     Davidson diagonalization with overlap
     ethr =  2.21E-04,  avg # of iterations =  5.0

     negative rho (up, down):  0.569E-03 0.000E+00

     total cpu time spent up to now is        3.3 secs

     total energy              =     -34.25342754 Ry
     Harris-Foulkes estimate   =     -34.25350199 Ry
     estimated scf accuracy    <       0.00043046 Ry

     iteration #  5     ecut=    25.00 Ry     beta=0.50
     Davidson diagonalization with overlap
     ethr =  5.38E-06,  avg # of iterations =  5.0

     negative rho (up, down):  0.536E-03 0.000E+00

     total cpu time spent up to now is        3.7 secs

     total energy              =     -34.25355778 Ry
     Harris-Foulkes estimate   =     -34.25352907 Ry
     estimated scf accuracy    <       0.00003837 Ry

     iteration #  6     ecut=    25.00 Ry     beta=0.50
     Davidson diagonalization with overlap
     ethr =  4.80E-07,  avg # of iterations =  5.0

     negative rho (up, down):  0.396E-03 0.000E+00

     total cpu time spent up to now is        4.2 secs

     total energy              =     -34.25356908 Ry
     Harris-Foulkes estimate   =     -34.25356697 Ry
     estimated scf accuracy    <       0.00000404 Ry

     iteration #  7     ecut=    25.00 Ry     beta=0.50
     Davidson diagonalization with overlap
     ethr =  5.05E-08,  avg # of iterations =  2.0

     negative rho (up, down):  0.334E-03 0.000E+00

     total cpu time spent up to now is        4.6 secs

     total energy              =     -34.25356990 Ry
     Harris-Foulkes estimate   =     -34.25357033 Ry
     estimated scf accuracy    <       0.00000109 Ry

     iteration #  8     ecut=    25.00 Ry     beta=0.50
     Davidson diagonalization with overlap
     ethr =  1.37E-08,  avg # of iterations =  2.0

     negative rho (up, down):  0.290E-03 0.000E+00

     total cpu time spent up to now is        4.8 secs

     End of self-consistent calculation

          k = 0.0000 0.0000 0.0000 ( 10152 PWs)   bands (ev):

   -25.2458 -13.0454  -9.1673  -7.1447  -0.9834   0.2177   0.6369   0.6662

     the Fermi energy is    -4.0690 ev

!    total energy              =     -34.25357028 Ry
     Harris-Foulkes estimate   =     -34.25357016 Ry
     estimated scf accuracy    <       0.00000005 Ry

     The total energy is the sum of the following terms:

     one-electron contribution =     -65.17847472 Ry
     hartree contribution      =      34.01685148 Ry
     xc contribution           =      -8.39380367 Ry
     ewald contribution        =       5.30185662 Ry
     smearing contrib. (-TS)   =       0.00000000 Ry

     ESM Charge and Potential
     ========================

    z (A)      rho (e)      Avg v_hartree        Avg v_local  Avg v_hart+v_loc
                                   (eV/A)             (eV/A)            (eV/A)
    ==========================================================================
   -6.244      0.00000        -12.7096695         12.8920512         0.1823818
   -6.138      0.00001        -12.6917487         12.8809262         0.1891775
   -6.033      0.00000        -12.6522884         12.8484405         0.1961521
   -5.927      0.00000        -12.5912885         12.7942579         0.2029694
   -5.821      0.00000        -12.5087491         12.7186576         0.2099085
   -5.715      0.00000        -12.4046701         12.6214405         0.2167705
   -5.609      0.00000        -12.2790515         12.5027089         0.2236574
   -5.503      0.00000        -12.1318934         12.3624663         0.2305729
   -5.398      0.00000        -11.9631957         12.2006032         0.2374075
   -5.292      0.00000        -11.7729585         12.0173266         0.2443681
   -5.186      0.00000        -11.5611817         11.8123485         0.2511668
   -5.080      0.00000        -11.3278654         11.5860148         0.2581494
   -4.974      0.00000        -11.0730096         11.3379498         0.2649402
   -4.868      0.00000        -10.7966143         11.0685279         0.2719136
   -4.763      0.00001        -10.4986795         10.7774070         0.2787275
   -4.657      0.00001        -10.1792053         10.4648675         0.2856622
   -4.551      0.00001         -9.8381916         10.1307155         0.2925239
   -4.445      0.00001         -9.4756384          9.7750408         0.2994023
   -4.339      0.00001         -9.0915460          9.3978673         0.3063213
   -4.233      0.00001         -8.6859143          8.9990569         0.3131426
   -4.128      0.00001         -8.2587436          8.5788531         0.3201096
   -4.022      0.00002         -7.8100338          8.1369249         0.3268910
   -3.916      0.00002         -7.3397852          7.6736652         0.3338800
   -3.810      0.00003         -6.8479979          7.1886505         0.3406526
   -3.704      0.00003         -6.3346726          6.6823001         0.3476275
   -3.598      0.00005         -5.7998097          6.1542347         0.3544250
   -3.493      0.00006         -5.2434100          5.6047597         0.3613497
   -3.387      0.00008         -4.6654743          5.0336725         0.3681982
   -3.281      0.00011         -4.0660039          4.4410514         0.3750475
   -3.175      0.00015         -3.4450007          3.8269546         0.3819539
   -3.069      0.00023         -2.8024678          3.1911862         0.3887185
   -2.963      0.00031         -2.1384097          2.5340694         0.3956597
   -2.858      0.00042         -1.4528318          1.8551753         0.4023435
   -2.752      0.00057         -0.7457412          1.1550069         0.4092657
   -2.646      0.00080         -0.0171479          0.4330267         0.4158789
   -2.540      0.00116          0.7329329         -0.3102383         0.4226946
   -2.434      0.00168          1.5044777         -1.0752572         0.4292204
   -2.328      0.00236          2.2974531         -1.8616646         0.4357885
   -2.223      0.00327          3.1118145         -2.6696819         0.4421326
   -2.117      0.00456          3.9475022         -3.4992631         0.4482390
   -2.011      0.00649          4.8044315         -4.3502594         0.4541721
   -1.905      0.00941          5.6824759         -5.2230187         0.4594572
   -1.799      0.01363          6.5814452         -6.1170063         0.4644389
   -1.693      0.01954          7.5010644         -7.0329134         0.4681509
   -1.588      0.02775          8.4409485         -7.9699402         0.4710083
   -1.482      0.03964          9.4005598         -8.9289305         0.4716293
   -1.376      0.05757         10.3791171         -9.9090758         0.4700413
   -1.270      0.08488         11.3754438        -10.9110578         0.4643859
   -1.164      0.12559         12.3877536        -11.9344229         0.4533308
   -1.058      0.18492         13.4133886        -12.9792862         0.4341024
   -0.953      0.27169         14.4484683        -14.0459937         0.4024746
   -0.847      0.40213         15.4872995        -15.1335805         0.3537190
   -0.741      0.60218         16.5213115        -16.2438985         0.2774130
   -0.635      0.90354         17.5374078        -17.3713507         0.1660572
   -0.529      1.34671         18.5158955        -18.5231370        -0.0072416
   -0.423      1.96515         19.4279299        -19.7230177        -0.2950878
   -0.318      2.69317         20.2338705        -20.9287589        -0.6948884
   -0.212      3.29951         20.8879816        -22.0006072        -1.1126256
   -0.106      3.60110         21.3521722        -22.8098130        -1.4576408
    0.000      3.72622         21.6061666        -23.2899987        -1.6838321
    0.106      3.83638         21.6408762        -23.4260774        -1.7852012
    0.212      3.77852         21.4501241        -23.2133809        -1.7632568
    0.318      3.38185         21.0386688        -22.6407994        -1.6021306
    0.423      2.75113         20.4315009        -21.7872368        -1.3557359
    0.529      2.08457         19.6682594        -20.7810276        -1.1127682
    0.635      1.49837         18.7914027        -19.6785961        -0.8871935
    0.741      1.03714         17.8385791        -18.5095790        -0.6709998
    0.847      0.70565         16.8395692        -17.3444885        -0.5049194
    0.953      0.48031         15.8159263        -16.2157722        -0.3998459
    1.058      0.32808         14.7823951        -15.1070393        -0.3246442
    1.164      0.22415         13.7489454        -14.0197134        -0.2707680
    1.270      0.15273         12.7223775        -12.9536971        -0.2313196
    1.376      0.10408         11.7073585        -11.9092245        -0.2018660
    1.482      0.07152         10.7070676        -10.8864967        -0.1794291
    1.588      0.04982          9.7236365         -9.8849411        -0.1613046
    1.693      0.03507          8.7584886         -8.9054024        -0.1469137
    1.799      0.02469          7.8125909         -7.9468670        -0.1342761
    1.905      0.01727          6.8866219         -7.0104187        -0.1237968
    2.011      0.01202          5.9810654         -6.0949941        -0.1139287
    2.117      0.00846          5.0962627         -5.2015591        -0.1052964
    2.223      0.00604          4.2324471         -4.3293067        -0.0968596
    2.328      0.00437          3.3897770         -3.4788416        -0.0890646
    2.434      0.00314          2.5683621         -2.6497861        -0.0814240
    2.540      0.00222          1.7682827         -1.8422847        -0.0740019
    2.646      0.00155          0.9895985         -1.0564148        -0.0668162
    2.752      0.00109          0.2323529         -0.2919034        -0.0595505
    2.858      0.00079         -0.5034245          0.4508195        -0.0526051
    2.963      0.00058         -1.2177139          1.1722939        -0.0454201
    3.069      0.00043         -1.9105016          1.8719213        -0.0385803
    3.175      0.00030         -2.5817774          2.5503065        -0.0314709
    3.281      0.00021         -3.2315332          3.2068874        -0.0246458
    3.387      0.00015         -3.8597631          3.8421409        -0.0176221
    3.493      0.00011         -4.4664630          4.4557085        -0.0107545
    3.598      0.00008         -5.0516303          5.0478083        -0.0038220
    3.704      0.00006         -5.6152634          5.6183724         0.0031090
    3.810      0.00005         -6.1573609          6.1673207         0.0099598
    3.916      0.00003         -6.6779217          6.6948676         0.0169459
    4.022      0.00003         -7.1769448          7.2006881         0.0237432
    4.128      0.00002         -7.6544298          7.6851864         0.0307566
    4.233      0.00002         -8.1103762          8.1479151         0.0375389
    4.339      0.00001         -8.5447839          8.5893269         0.0445430
    4.445      0.00001         -8.9576526          9.0090008         0.0513482
    4.551      0.00001         -9.3489823          9.4072929         0.0583107
    4.657      0.00001         -9.7187727          9.7839389         0.0651662
    4.763      0.00001        -10.0670237         10.1390926         0.0720689
    4.868      0.00001        -10.3937354         10.4727198         0.0789844
    4.974      0.00001        -10.6989076         10.7847358         0.0858282
    5.080      0.00000        -10.9825404         11.0753343         0.0927938
    5.186      0.00001        -11.2446337         11.3442310         0.0995972
    5.292      0.00000        -11.4851876         11.5917753         0.1065878
    5.398      0.00000        -11.7042018         11.8175828         0.1133810
    5.503      0.00000        -11.9016766         12.0220410         0.1203644
    5.609      0.00000        -12.0776118         12.2047909         0.1271791
    5.715      0.00000        -12.2320075         12.3661338         0.1341263
    5.821      0.00000        -12.3648636         12.5058498         0.1409862
    5.927      0.00000        -12.4761801         12.6240603         0.1478801
    6.033      0.00000        -12.5659571         12.7207514         0.1547943
    6.138      0.00000        -12.6341945         12.7958297         0.1616352
    6.244      0.00000        -12.6808924         12.8494874         0.1685950
    6.350      0.00000        -12.7060507         12.8814502         0.1753995
 

     convergence has been achieved in   8 iterations

     Forces acting on atoms (Ry/au):

     atom    1 type  2   force =    -0.00021975   -0.00017521    0.00004172
     atom    2 type  1   force =     0.00007567   -0.00008167   -0.00004957
     atom    3 type  1   force =     0.00014408    0.00025688    0.00000785

     Total force =     0.000295     Total SCF correction =     0.000048
     SCF correction compared to forces is large: reduce conv_thr to get better values

     Writing output data file H2O.save
 
     init_run     :      0.99s CPU      1.18s WALL (       1 calls)
     electrons    :      2.69s CPU      3.37s WALL (       1 calls)
     forces       :      0.42s CPU      0.43s WALL (       1 calls)

     Called by init_run:
     wfcinit      :      0.01s CPU      0.04s WALL (       1 calls)
     potinit      :      0.46s CPU      0.50s WALL (       1 calls)

     Called by electrons:
     c_bands      :      0.33s CPU      0.40s WALL (       8 calls)
     sum_band     :      0.51s CPU      0.55s WALL (       8 calls)
     v_of_rho     :      0.87s CPU      0.99s WALL (       9 calls)
     newd         :      0.27s CPU      0.33s WALL (       9 calls)
     mix_rho      :      0.13s CPU      0.14s WALL (       8 calls)

     Called by c_bands:
     init_us_2    :      0.01s CPU      0.01s WALL (      17 calls)
     regterg      :      0.32s CPU      0.39s WALL (       8 calls)

     Called by *egterg:
     h_psi        :      0.29s CPU      0.36s WALL (      38 calls)
     s_psi        :      0.00s CPU      0.00s WALL (      38 calls)
     g_psi        :      0.00s CPU      0.00s WALL (      29 calls)
     rdiaghg      :      0.01s CPU      0.01s WALL (      37 calls)

     Called by h_psi:
     add_vuspsi   :      0.00s CPU      0.00s WALL (      38 calls)

     General routines
     calbec       :      0.01s CPU      0.01s WALL (      50 calls)
     fft          :      0.89s CPU      1.00s WALL (     143 calls)
     ffts         :      0.02s CPU      0.03s WALL (      17 calls)
     fftw         :      0.23s CPU      0.29s WALL (     254 calls)
     interpolate  :      0.14s CPU      0.17s WALL (      17 calls)
     davcio       :      0.00s CPU      0.00s WALL (       8 calls)
 
     Parallel routines
     fft_scatter  :      0.41s CPU      0.49s WALL (     414 calls)
 
     PWSCF        :     4.30s CPU         5.77s WALL

 
   This run was terminated on:  16: 6:32  11Aug2011            

=------------------------------------------------------------------------------=
   JOB DONE.
=------------------------------------------------------------------------------=
