
     Program PWSCF v.> 4.2      starts on 28Jan2011 at 15:39:30 

     This program is part of the open-source Quantum ESPRESSO suite
     for quantum simulation of materials; please cite
         "P. Giannozzi et al., J. Phys.:Condens. Matter 21 395502 (2009);
          URL http://www.quantum-espresso.org", 
     in publications or presentations arising from this work. More details at
     http://www.quantum-espresso.org/wiki/index.php/Citing_Quantum-ESPRESSO

     Parallel version (MPI), running on     4 processors
     R & G space division:  proc/pool =    4

     Current dimensions of program PWSCF are:
     Max number of different atomic species (ntypx) = 10
     Max number of k-points (npk) =  40000
     Max angular momentum in pseudopotentials (lmaxx) =  3
     Waiting for input...
     file H.pbe-rrkjus.UPF: wavefunction(s)  1S renormalized
     file O.pbe-rrkjus.UPF: wavefunction(s)  2S renormalized

     Subspace diagonalization in iterative solution of the eigenvalue problem:
     a serial algorithm will be used


     Planes per process (thick) : nr3 = 120 npp =   30 ncplane =  9216
     Planes per process (smooth): nr3s=  80 npps=   20 ncplanes=  4096
 
     Proc/  planes cols     G    planes cols    G      columns  G
     Pool       (dense grid)       (smooth grid)      (wavefct grid)
        1    30   1594   114646   20    796    40538    210     5506
        2    30   1591   114645   20    795    40525    212     5508
        3    30   1591   114645   20    795    40525    212     5508
        4    30   1593   114645   20    795    40525    211     5505
     tot    120   6369   458581   80   3181   162113    845    22027
 


     bravais-lattice index     =            6
     lattice parameter (a_0)   =      20.0000  a.u.
     unit-cell volume          =    9600.0000 (a.u.)^3
     number of atoms/cell      =            3
     number of atomic types    =            2
     number of electrons       =         8.00
     number of Kohn-Sham states=            8
     kinetic-energy cutoff     =      25.0000  Ry
     charge density cutoff     =     200.0000  Ry
     convergence threshold     =      1.0E-06
     mixing beta               =       0.7000
     number of iterations used =            8  plain     mixing
     Exchange-correlation      =  SLA  PW   PBE  PBE (1434)
     EXX-fraction              =        0.00

     Effective Screening Medium Method
     =================================
     field strength (Ry/a.u.)         =       0.00 
     ESM offset from cell edge (a.u.) =       0.00 
     grid points for fit at edges     =          4 
     Ordinary Periodic Boundary Conditions
 

     celldm(1)=  20.000000  celldm(2)=   0.000000  celldm(3)=   1.200000
     celldm(4)=   0.000000  celldm(5)=   0.000000  celldm(6)=   0.000000

     crystal axes: (cart. coord. in units of a_0)
               a(1) = (   1.000000   0.000000   0.000000 )  
               a(2) = (   0.000000   1.000000   0.000000 )  
               a(3) = (   0.000000   0.000000   1.200000 )  

     reciprocal axes: (cart. coord. in units 2 pi/a_0)
               b(1) = (  1.000000  0.000000  0.000000 )  
               b(2) = (  0.000000  1.000000  0.000000 )  
               b(3) = (  0.000000  0.000000  0.833333 )  


     PseudoPot. # 1 for H  read from file H.pbe-rrkjus.UPF
     MD5 check sum: 7cc9d459525c9a0585f487a71c3c9563
     Pseudo is Ultrasoft, Zval =  1.0
     Generated by new atomic code, or converted to UPF format
     Using radial grid of 1061 points,  2 beta functions with: 
                l(1) =   0
                l(2) =   0
     Q(r) pseudized with 0 coefficients 


     PseudoPot. # 2 for O  read from file O.pbe-rrkjus.UPF
     MD5 check sum: 390ba29e75625707450f3bd3f0eb6be9
     Pseudo is Ultrasoft, Zval =  6.0
     Generated by new atomic code, or converted to UPF format
     Using radial grid of 1269 points,  4 beta functions with: 
                l(1) =   0
                l(2) =   0
                l(3) =   1
                l(4) =   1
     Q(r) pseudized with 0 coefficients 


     atomic species   valence    mass     pseudopotential
        H              1.00     1.00794     H ( 1.00)
        O              6.00    55.84700     O ( 1.00)

     No symmetry found

   Cartesian axes

     site n.     atom                  positions (a_0 units)
         1           O   tau(  1) = (   0.0000000   0.5000000   0.0000000  )
         2           H   tau(  2) = (   0.0431388   0.4310286   0.0430783  )
         3           H   tau(  3) = (   0.0366354   0.5764064   0.0359492  )

     number of k points=     5  gaussian smearing, width (Ry)=  0.0500
                       cart. coord. in units 2pi/a_0
        k(    1) = (   0.0000000   0.0000000   0.0000000), wk =   1.0000000
        k(    2) = (   0.2500000   0.2500000   0.2500000), wk =   0.2500000
        k(    3) = (  -0.2500000  -0.2500000   0.2500000), wk =   0.2500000
        k(    4) = (  -0.2500000   0.2500000  -0.2500000), wk =   0.2500000
        k(    5) = (   0.2500000  -0.2500000  -0.2500000), wk =   0.2500000

     G cutoff = 2026.4237  ( 458581 G-vectors)     FFT grid: ( 96, 96,120)
     G cutoff = 1013.2118  ( 162113 G-vectors)  smooth grid: ( 64, 64, 80)

     Largest allocated arrays     est. size (Mb)     dimensions
        Kohn-Sham Wavefunctions         0.62 Mb     (   5086,   8)
        NL pseudopotentials             0.93 Mb     (   5086,  12)
        Each V/rho on FFT grid          4.22 Mb     ( 276480)
        Each G-vector array             0.87 Mb     ( 114646)
        G-vector shells                 0.09 Mb     (  12144)
     Largest temporary arrays     est. size (Mb)     dimensions
        Auxiliary wavefunctions         2.48 Mb     (   5086,  32)
        Each subspace H/S matrix        0.02 Mb     (     32,  32)
        Each <psi_i|beta_j> matrix      0.00 Mb     (     12,   8)
        Arrays for rho mixing          33.75 Mb     ( 276480,   8)

     Initial potential from superposition of free atoms
     Check: negative starting charge=   -0.001104

     starting charge    7.80759, renormalised to    8.00000

     negative rho (up, down):  0.113E-02 0.000E+00
     Starting wfc are    6 atomic +    2 random wfc

     total cpu time spent up to now is      2.70 secs

     per-process dynamical memory:    59.4 Mb

     Self-consistent Calculation

     iteration #  1     ecut=    25.00 Ry     beta=0.70
     Davidson diagonalization with overlap
     ethr =  1.00E-02,  avg # of iterations =  6.6

     negative rho (up, down):  0.428E-03 0.000E+00

     total cpu time spent up to now is      4.80 secs

     total energy              =     -34.06628585 Ry
     Harris-Foulkes estimate   =     -34.57468900 Ry
     estimated scf accuracy    <       0.66651806 Ry

     iteration #  2     ecut=    25.00 Ry     beta=0.70
     Davidson diagonalization with overlap
     ethr =  8.33E-03,  avg # of iterations =  2.6

     negative rho (up, down):  0.994E-02 0.000E+00

     total cpu time spent up to now is      6.46 secs

     total energy              =     -34.15524309 Ry
     Harris-Foulkes estimate   =     -34.36529325 Ry
     estimated scf accuracy    <       0.41456886 Ry

     iteration #  3     ecut=    25.00 Ry     beta=0.70
     Davidson diagonalization with overlap
     ethr =  5.18E-03,  avg # of iterations =  2.0

     negative rho (up, down):  0.683E-03 0.000E+00

     total cpu time spent up to now is      7.98 secs

     total energy              =     -34.24915261 Ry
     Harris-Foulkes estimate   =     -34.25927334 Ry
     estimated scf accuracy    <       0.01939045 Ry

     iteration #  4     ecut=    25.00 Ry     beta=0.70
     Davidson diagonalization with overlap
     ethr =  2.42E-04,  avg # of iterations =  5.2

     negative rho (up, down):  0.402E-03 0.000E+00

     total cpu time spent up to now is      9.95 secs

     total energy              =     -34.25342478 Ry
     Harris-Foulkes estimate   =     -34.25344605 Ry
     estimated scf accuracy    <       0.00017891 Ry

     iteration #  5     ecut=    25.00 Ry     beta=0.70
     Davidson diagonalization with overlap
     ethr =  2.24E-06,  avg # of iterations = 10.0

     negative rho (up, down):  0.324E-03 0.000E+00

     total cpu time spent up to now is     12.30 secs

     total energy              =     -34.25346772 Ry
     Harris-Foulkes estimate   =     -34.25345142 Ry
     estimated scf accuracy    <       0.00000569 Ry

     iteration #  6     ecut=    25.00 Ry     beta=0.70
     Davidson diagonalization with overlap
     ethr =  7.11E-08,  avg # of iterations =  3.8

     negative rho (up, down):  0.288E-03 0.000E+00

     total cpu time spent up to now is     13.98 secs

     End of self-consistent calculation

          k = 0.0000 0.0000 0.0000 ( 20303 PWs)   bands (ev):

   -25.2412 -13.0410  -9.1639  -7.1411  -0.9835   0.2183   0.6361   0.6652

          k = 0.2500 0.2500 0.2500 ( 20274 PWs)   bands (ev):

   -25.2411 -13.0407  -9.1633  -7.1404  -0.9258   0.2278   0.3979   0.5671

          k =-0.2500-0.2500 0.2500 ( 20274 PWs)   bands (ev):

   -25.2412 -13.0406  -9.1634  -7.1407  -0.9258   0.2179   0.4125   0.5765

          k =-0.2500 0.2500-0.2500 ( 20274 PWs)   bands (ev):

   -25.2411 -13.0408  -9.1633  -7.1405  -0.9257   0.2153   0.4123   0.5749

          k = 0.2500-0.2500-0.2500 ( 20274 PWs)   bands (ev):

   -25.2411 -13.0407  -9.1634  -7.1408  -0.9258   0.2208   0.3962   0.5935

     the Fermi energy is    -4.0688 ev

!    total energy              =     -34.25346798 Ry
     Harris-Foulkes estimate   =     -34.25346865 Ry
     estimated scf accuracy    <       0.00000071 Ry

     The total energy is the sum of the following terms:

     one-electron contribution =     -65.17662168 Ry
     hartree contribution      =      34.01469076 Ry
     xc contribution           =      -8.39339369 Ry
     ewald contribution        =       5.30185662 Ry
     smearing contrib. (-TS)   =       0.00000000 Ry

     ESM Charge and Potential
     ========================

    z (A)      rho (e)      Avg v_hartree        Avg v_local  Avg v_hart+v_loc
                                   (eV/A)             (eV/A)            (eV/A)
    ==========================================================================
   -6.244      0.00000        -12.7096350         12.8920512         0.1824163
   -6.138      0.00000        -12.6917138         12.8809262         0.1892124
   -6.033      0.00000        -12.6522531         12.8484405         0.1961874
   -5.927      0.00000        -12.5912528         12.7942579         0.2030051
   -5.821      0.00000        -12.5087129         12.7186576         0.2099446
   -5.715      0.00000        -12.4046335         12.6214405         0.2168070
   -5.609      0.00000        -12.2790145         12.5027089         0.2236944
   -5.503      0.00000        -12.1318560         12.3624663         0.2306103
   -5.398      0.00000        -11.9631580         12.2006032         0.2374453
   -5.292      0.00000        -11.7729204         12.0173266         0.2444062
   -5.186      0.00000        -11.5611432         11.8123485         0.2512053
   -5.080      0.00000        -11.3278266         11.5860148         0.2581882
   -4.974      0.00001        -11.0729704         11.3379498         0.2649794
   -4.868      0.00000        -10.7965747         11.0685279         0.2719532
   -4.763      0.00001        -10.4986396         10.7774070         0.2787675
   -4.657      0.00001        -10.1791650         10.4648675         0.2857025
   -4.551      0.00001         -9.8381509         10.1307155         0.2925646
   -4.445      0.00001         -9.4755974          9.7750408         0.2994434
   -4.339      0.00001         -9.0915046          9.3978673         0.3063627
   -4.233      0.00001         -8.6858727          8.9990569         0.3131843
   -4.128      0.00001         -8.2587016          8.5788531         0.3201516
   -4.022      0.00001         -7.8099915          8.1369249         0.3269334
   -3.916      0.00002         -7.3397425          7.6736652         0.3339227
   -3.810      0.00003         -6.8479549          7.1886505         0.3406956
   -3.704      0.00004         -6.3346292          6.6823001         0.3476709
   -3.598      0.00005         -5.7997660          6.1542347         0.3544687
   -3.493      0.00006         -5.2433660          5.6047597         0.3613936
   -3.387      0.00008         -4.6654301          5.0336725         0.3682424
   -3.281      0.00011         -4.0659594          4.4410514         0.3750921
   -3.175      0.00015         -3.4449558          3.8269546         0.3819987
   -3.069      0.00023         -2.8024226          3.1911862         0.3887636
   -2.963      0.00031         -2.1383643          2.5340694         0.3957051
   -2.858      0.00042         -1.4527864          1.8551753         0.4023889
   -2.752      0.00056         -0.7456958          1.1550069         0.4093111
   -2.646      0.00080         -0.0171023          0.4330267         0.4159244
   -2.540      0.00116          0.7329786         -0.3102383         0.4227404
   -2.434      0.00168          1.5045235         -1.0752572         0.4292663
   -2.328      0.00237          2.2974988         -1.8616646         0.4358342
   -2.223      0.00328          3.1118597         -2.6696819         0.4421777
   -2.117      0.00457          3.9475465         -3.4992631         0.4482834
   -2.011      0.00649          4.8044747         -4.3502594         0.4542153
   -1.905      0.00941          5.6825181         -5.2230187         0.4594994
   -1.799      0.01364          6.5814861         -6.1170063         0.4644798
   -1.693      0.01956          7.5011034         -7.0329134         0.4681900
   -1.588      0.02777          8.4409847         -7.9699402         0.4710444
   -1.482      0.03967          9.4005916         -8.9289305         0.4716610
   -1.376      0.05759         10.3791429         -9.9090758         0.4700671
   -1.270      0.08489         11.3754623        -10.9110578         0.4644045
   -1.164      0.12561         12.3877638        -11.9344229         0.4533409
   -1.058      0.18495         13.4133891        -12.9792862         0.4341029
   -0.953      0.27175         14.4484569        -14.0459937         0.4024632
   -0.847      0.40221         15.4872724        -15.1335805         0.3536919
   -0.741      0.60225         16.5212636        -16.2438985         0.2773651
   -0.635      0.90359         17.5373346        -17.3713507         0.1659840
   -0.529      1.34672         18.5157941        -18.5231370        -0.0073429
   -0.423      1.96515         19.4277994        -19.7230177        -0.2952182
   -0.318      2.69315         20.2337110        -20.9287589        -0.6950479
   -0.212      3.29945         20.8877944        -22.0006072        -1.1128129
   -0.106      3.60098         21.3519608        -22.8098130        -1.4578522
    0.000      3.72605         21.6059385        -23.2899987        -1.6840601
    0.106      3.83621         21.6406420        -23.4260774        -1.7854354
    0.212      3.77840         21.4498945        -23.2133809        -1.7634864
    0.318      3.38178         21.0384516        -22.6407994        -1.6023479
    0.423      2.75108         20.4313009        -21.7872368        -1.3559359
    0.529      2.08452         19.6680802        -20.7810276        -1.1129474
    0.635      1.49835         18.7912476        -19.6785961        -0.8873485
    0.741      1.03716         17.8384498        -18.5095790        -0.6711292
    0.847      0.70571         16.8394642        -17.3444885        -0.5050243
    0.953      0.48037         15.8158422        -16.2157722        -0.3999300
    1.058      0.32813         14.7823279        -15.1070393        -0.3247114
    1.164      0.22418         13.7488921        -14.0197134        -0.2708213
    1.270      0.15274         12.7223364        -12.9536971        -0.2313608
    1.376      0.10410         11.7073282        -11.9092245        -0.2018963
    1.482      0.07155         10.7070469        -10.8864967        -0.1794498
    1.588      0.04985          9.7236239         -9.8849411        -0.1613173
    1.693      0.03510          8.7584821         -8.9054024        -0.1469202
    1.799      0.02470          7.8125890         -7.9468670        -0.1342781
    1.905      0.01727          6.8866235         -7.0104187        -0.1237952
    2.011      0.01203          5.9810699         -6.0949941        -0.1139242
    2.117      0.00846          5.0962699         -5.2015591        -0.1052892
    2.223      0.00605          4.2324568         -4.3293067        -0.0968499
    2.328      0.00438          3.3897889         -3.4788416        -0.0890527
    2.434      0.00314          2.5683757         -2.6497861        -0.0814104
    2.540      0.00222          1.7682975         -1.8422847        -0.0739872
    2.646      0.00155          0.9896142         -1.0564148        -0.0668006
    2.752      0.00109          0.2323694         -0.2919034        -0.0595340
    2.858      0.00079         -0.5034070          0.4508195        -0.0525875
    2.963      0.00059         -1.2176954          1.1722939        -0.0454015
    3.069      0.00043         -1.9104822          1.8719213        -0.0385609
    3.175      0.00031         -2.5817573          2.5503065        -0.0314508
    3.281      0.00021         -3.2315126          3.2068874        -0.0246252
    3.387      0.00015         -3.8597420          3.8421409        -0.0176010
    3.493      0.00011         -4.4664413          4.4557085        -0.0107328
    3.598      0.00009         -5.0516080          5.0478083        -0.0037997
    3.704      0.00007         -5.6152405          5.6183724         0.0031319
    3.810      0.00005         -6.1573375          6.1673207         0.0099833
    3.916      0.00003         -6.6778978          6.6948676         0.0169698
    4.022      0.00002         -7.1769205          7.2006881         0.0237676
    4.128      0.00002         -7.6544049          7.6851864         0.0307815
    4.233      0.00002         -8.1103508          8.1479151         0.0375643
    4.339      0.00001         -8.5447580          8.5893269         0.0445689
    4.445      0.00001         -8.9576263          9.0090008         0.0513745
    4.551      0.00001         -9.3489555          9.4072929         0.0583374
    4.657      0.00001         -9.7187454          9.7839389         0.0651934
    4.763      0.00001        -10.0669960         10.1390926         0.0720966
    4.868      0.00001        -10.3937072         10.4727198         0.0790126
    4.974      0.00001        -10.6988790         10.7847358         0.0858568
    5.080      0.00000        -10.9825113         11.0753343         0.0928229
    5.186      0.00001        -11.2446042         11.3442310         0.0996267
    5.292      0.00000        -11.4851576         11.5917753         0.1066177
    5.398      0.00000        -11.7041714         11.8175828         0.1134114
    5.503      0.00000        -11.9016458         12.0220410         0.1203952
    5.609      0.00000        -12.0775805         12.2047909         0.1272104
    5.715      0.00000        -12.2319758         12.3661338         0.1341580
    5.821      0.00000        -12.3648315         12.5058498         0.1410183
    5.927      0.00000        -12.4761476         12.6240603         0.1479126
    6.033      0.00000        -12.5659242         12.7207514         0.1548272
    6.138      0.00000        -12.6341612         12.7958297         0.1616685
    6.244      0.00000        -12.6808587         12.8494874         0.1686287
    6.350      0.00000        -12.7060166         12.8814502         0.1754336
 

     convergence has been achieved in   6 iterations

     Forces acting on atoms (Ry/au):

     atom   1 type  2   force =     0.00003029   -0.00014822    0.00023547
     atom   2 type  1   force =    -0.00003531   -0.00020621   -0.00013533
     atom   3 type  1   force =     0.00000502    0.00035444   -0.00010015

     Total force =     0.000368     Total SCF correction =     0.000131

     Writing output data file H2O.save
 
     init_run     :      2.35s CPU      2.53s WALL (       1 calls)
     electrons    :      9.67s CPU     11.39s WALL (       1 calls)
     forces       :      0.99s CPU      1.01s WALL (       1 calls)

     Called by init_run:
     wfcinit      :      0.21s CPU      0.28s WALL (       1 calls)
     potinit      :      0.91s CPU      0.94s WALL (       1 calls)

     Called by electrons:
     c_bands      :      5.19s CPU      5.91s WALL (       6 calls)
     sum_band     :      1.76s CPU      1.96s WALL (       6 calls)
     v_of_rho     :      1.45s CPU      1.61s WALL (       7 calls)
     newd         :      0.90s CPU      1.08s WALL (       7 calls)
     mix_rho      :      0.18s CPU      0.20s WALL (       6 calls)

     Called by c_bands:
     init_us_2    :      0.16s CPU      0.17s WALL (      70 calls)
     cegterg      :      5.06s CPU      5.73s WALL (      30 calls)

     Called by *egterg:
     h_psi        :      4.36s CPU      5.00s WALL (     186 calls)
     s_psi        :      0.05s CPU      0.07s WALL (     186 calls)
     g_psi        :      0.09s CPU      0.10s WALL (     151 calls)
     cdiaghg      :      0.05s CPU      0.07s WALL (     181 calls)

     Called by h_psi:
     add_vuspsi   :      0.07s CPU      0.07s WALL (     186 calls)

     General routines
     calbec       :      0.14s CPU      0.14s WALL (     221 calls)
     fft          :      1.28s CPU      1.44s WALL (     111 calls)
     ffts         :      0.03s CPU      0.04s WALL (      13 calls)
     fftw         :      3.62s CPU      4.54s WALL (    2114 calls)
     interpolate  :      0.19s CPU      0.24s WALL (      13 calls)
     davcio       :      0.00s CPU      0.07s WALL (     100 calls)
 
     Parallel routines
     fft_scatter  :      0.90s CPU      1.44s WALL (    2238 calls)
 
     PWSCF        :    13.17s CPU        15.48s WALL

 
   This run was terminated on:  15:39:45  28Jan2011            

=------------------------------------------------------------------------------=
   JOB DONE.
=------------------------------------------------------------------------------=
