
     Program PWSCF v.6.7GPU starts on  5May2021 at 16:43:17 

     This program is part of the open-source Quantum ESPRESSO suite
     for quantum simulation of materials; please cite
         "P. Giannozzi et al., J. Phys.:Condens. Matter 21 395502 (2009);
         "P. Giannozzi et al., J. Phys.:Condens. Matter 29 465901 (2017);
         "P. Giannozzi et al., J. Chem. Phys. 152 154105 (2020);
          URL http://www.quantum-espresso.org", 
     in publications or presentations arising from this work. More details at
     http://www.quantum-espresso.org/quote

     Parallel version (MPI), running on     1 processors

     MPI processes distributed on     1 nodes
 Using CP units for velocities
     Message from routine scan_end:
     No INFO block end statement, possibly corrupted file
 Cannot open trajectory file. I can calculate only a single step from input file

     Subspace diagonalization in iterative solution of the eigenvalue problem:
     a serial algorithm will be used

 
     G-vector sticks info
     --------------------
     sticks:   dense  smooth     PW     G-vecs:    dense   smooth      PW
     Sum        1281    1281    325                34265    34265    4337
 
     Using Slab Decomposition
 


     bravais-lattice index     =            0
     lattice parameter (alat)  =      10.0000  a.u.
     unit-cell volume          =    1000.0000 (a.u.)^3
     number of atoms/cell      =            3
     number of atomic types    =            2
     number of electrons       =         8.00
     number of Kohn-Sham states=            4
     kinetic-energy cutoff     =      40.0000  Ry
     charge density cutoff     =     160.0000  Ry
     scf convergence threshold =      1.0E-11
     mixing beta               =       0.7000
     number of iterations used =            8  plain     mixing
     energy convergence thresh.=      0.0E+00
     force convergence thresh. =      0.0E+00
     Exchange-correlation=  SLA  PW   PBX  PBC
                           (   1   4   3   4   0   0   0)
     nstep                     =           50


     celldm(1)=  10.000000  celldm(2)=   0.000000  celldm(3)=   0.000000
     celldm(4)=   0.000000  celldm(5)=   0.000000  celldm(6)=   0.000000

     crystal axes: (cart. coord. in units of alat)
               a(1) = (  -0.562667   0.496057  -0.661312 )  
               a(2) = (  -0.122534   0.741076   0.660145 )  
               a(3) = (   0.817552   0.452475  -0.356195 )  

     reciprocal axes: (cart. coord. in units 2 pi/alat)
               b(1) = ( -0.562667  0.496057 -0.661312 )  
               b(2) = ( -0.122534  0.741076  0.660145 )  
               b(3) = (  0.817552  0.452475 -0.356195 )  


     PseudoPot. # 1 for H  read from file:
     ../pseudo/H_HSCV_PBE-1.0.upf
     MD5 check sum: 9381039c3e76055a91507fe4cf572eb6
     Pseudo is Norm-conserving, Zval =  1.0
     Generated by new atomic code, or converted to UPF format
     Using radial grid of 2000 points,  0 beta functions with: 

     PseudoPot. # 2 for O  read from file:
     ../pseudo/O_HSCV_PBE-1.0.upf
     MD5 check sum: d1ac96ff7cc4673fd84f2420bd578511
     Pseudo is Norm-conserving, Zval =  6.0
     Generated by new atomic code, or converted to UPF format
     Using radial grid of 2000 points,  1 beta functions with: 
                l(1) =   0

     atomic species   valence    mass     pseudopotential
        H              1.00     1.00000     H ( 1.00)
        O              6.00    16.00000     O ( 1.00)

     No symmetry found



   Cartesian axes

     site n.     atom                  positions (alat units)
         1           H   tau(   1) = (  -0.0000076   0.0000592   0.0001085  )
         2           H   tau(   2) = (  -0.0003859  -0.0001469  -0.0000065  )
         3           O   tau(   3) = (   0.0000246   0.0000055  -0.0000064  )

     number of k points=     1
                       cart. coord. in units 2pi/alat
        k(    1) = (   0.0000000   0.0000000   0.0000000), wk =   2.0000000

     Dense  grid:    17133 G-vectors     FFT dimensions: (  45,  45,  45)

     Estimated max dynamical RAM per process >      14.61 MB

     Initial potential from superposition of free atoms

     starting charge    7.99998, renormalised to    8.00000

     negative rho (up, down):  8.020E-03 0.000E+00
     Starting wfcs are    6 randomized atomic wfcs
     charge density from previous step

     negative rho (up, down):  8.020E-03 0.000E+00

     total cpu time spent up to now is        0.4 secs

     Self-consistent Calculation

     iteration #  1     ecut=    40.00 Ry     beta= 0.70
     Davidson diagonalization with overlap
     ethr =  1.00E-03,  avg # of iterations =  4.0

     negative rho (up, down):  1.824E-03 0.000E+00

     total cpu time spent up to now is        0.5 secs

     total energy              =    4071.20134160 Ry
     estimated scf accuracy    <       5.59221764 Ry

     iteration #  2     ecut=    40.00 Ry     beta= 0.70
     Davidson diagonalization with overlap
     ethr =  1.00E-02,  avg # of iterations =  2.0

     negative rho (up, down):  5.465E-04 0.000E+00

     total cpu time spent up to now is        0.6 secs

     total energy              =    4069.93850105 Ry
     estimated scf accuracy    <       0.44086722 Ry

     iteration #  3     ecut=    40.00 Ry     beta= 0.70
     Davidson diagonalization with overlap
     ethr =  5.51E-03,  avg # of iterations =  2.0

     negative rho (up, down):  9.004E-04 0.000E+00

     total cpu time spent up to now is        0.6 secs

     total energy              =    4069.80063853 Ry
     estimated scf accuracy    <       0.01823625 Ry

     iteration #  4     ecut=    40.00 Ry     beta= 0.70
     Davidson diagonalization with overlap
     ethr =  2.28E-04,  avg # of iterations =  1.0

     negative rho (up, down):  1.279E-08 0.000E+00

     total cpu time spent up to now is        0.7 secs

     total energy              =    4069.82767837 Ry
     estimated scf accuracy    <       0.04708259 Ry

     iteration #  5     ecut=    40.00 Ry     beta= 0.70
     Davidson diagonalization with overlap
     ethr =  2.28E-04,  avg # of iterations =  2.0

     negative rho (up, down):  1.160E-07 0.000E+00

     total cpu time spent up to now is        0.8 secs

     total energy              =    4069.81959607 Ry
     estimated scf accuracy    <       0.00015946 Ry

     iteration #  6     ecut=    40.00 Ry     beta= 0.70
     Davidson diagonalization with overlap
     ethr =  1.99E-06,  avg # of iterations =  2.0

     total cpu time spent up to now is        0.8 secs

     total energy              =    4069.81955919 Ry
     estimated scf accuracy    <       0.00000078 Ry

     iteration #  7     ecut=    40.00 Ry     beta= 0.70
     Davidson diagonalization with overlap
     ethr =  9.80E-09,  avg # of iterations =  1.0

     total cpu time spent up to now is        0.9 secs

     total energy              =    4069.81955917 Ry
     estimated scf accuracy    <       0.00000008 Ry

     iteration #  8     ecut=    40.00 Ry     beta= 0.70
     Davidson diagonalization with overlap
     ethr =  1.04E-09,  avg # of iterations =  2.0

     total cpu time spent up to now is        0.9 secs

     total energy              =    4069.81955914 Ry
     estimated scf accuracy    <          5.4E-09 Ry

     iteration #  9     ecut=    40.00 Ry     beta= 0.70
     Davidson diagonalization with overlap
     ethr =  6.69E-11,  avg # of iterations =  2.0

     total cpu time spent up to now is        1.0 secs

     total energy              =    4069.81955914 Ry
     estimated scf accuracy    <          2.1E-09 Ry

     iteration # 10     ecut=    40.00 Ry     beta= 0.70
     Davidson diagonalization with overlap
     ethr =  2.66E-11,  avg # of iterations =  2.0

     total cpu time spent up to now is        1.0 secs

     total energy              =    4069.81955914 Ry
     estimated scf accuracy    <          1.5E-11 Ry

     iteration # 11     ecut=    40.00 Ry     beta= 0.70
     Davidson diagonalization with overlap
     ethr =  1.82E-13,  avg # of iterations =  2.0

     total cpu time spent up to now is        1.1 secs

     End of self-consistent calculation

          k = 0.0000 0.0000 0.0000 (  2169 PWs)   bands (ev):

   -36.1424 -12.4307 -12.4278 -12.4276

     highest occupied level (ev):   -12.4276

!    total energy              =    4069.81955914 Ry
     estimated scf accuracy    <          3.5E-12 Ry

     convergence has been achieved in  11 iterations
     charge density from previous step

     total cpu time spent up to now is        1.1 secs

     Self-consistent Calculation

     iteration #  1     ecut=    40.00 Ry     beta= 0.70
     Davidson diagonalization with overlap
     ethr =  1.00E-07,  avg # of iterations =  4.0

     total cpu time spent up to now is        1.2 secs

     total energy              =   12295.27268179 Ry
     estimated scf accuracy    <       0.00039514 Ry

     iteration #  2     ecut=    40.00 Ry     beta= 0.70
     Davidson diagonalization with overlap
     ethr =  4.94E-06,  avg # of iterations =  2.0

     total cpu time spent up to now is        1.2 secs

     total energy              =   12295.27264181 Ry
     estimated scf accuracy    <       0.00000791 Ry

     iteration #  3     ecut=    40.00 Ry     beta= 0.70
     Davidson diagonalization with overlap
     ethr =  9.89E-08,  avg # of iterations =  1.0

     total cpu time spent up to now is        1.3 secs

     total energy              =   12295.27264154 Ry
     estimated scf accuracy    <       0.00000021 Ry

     iteration #  4     ecut=    40.00 Ry     beta= 0.70
     Davidson diagonalization with overlap
     ethr =  2.61E-09,  avg # of iterations =  2.0

     total cpu time spent up to now is        1.3 secs

     total energy              =   12295.27264152 Ry
     estimated scf accuracy    <          2.5E-09 Ry

     iteration #  5     ecut=    40.00 Ry     beta= 0.70
     Davidson diagonalization with overlap
     ethr =  3.17E-11,  avg # of iterations =  1.0

     total cpu time spent up to now is        1.4 secs

     total energy              =   12295.27264152 Ry
     estimated scf accuracy    <          1.5E-10 Ry

     iteration #  6     ecut=    40.00 Ry     beta= 0.70
     Davidson diagonalization with overlap
     ethr =  1.89E-12,  avg # of iterations =  2.0

     total cpu time spent up to now is        1.4 secs

     End of self-consistent calculation

          k = 0.0000 0.0000 0.0000 (  2169 PWs)   bands (ev):

   -36.1419 -12.4289 -12.4284 -12.4284

     highest occupied level (ev):   -12.4284

!    total energy              =   12295.27264152 Ry
     estimated scf accuracy    <          3.0E-12 Ry

     convergence has been achieved in   6 iterations
 ROUTINE_ZERO BEGINNING
 check_charge   4.00000000000000     
     zero_current :      0.02s CPU      0.02s WALL (       1 calls)
 ZERO CURRENT CALCULATED
     routine_zero :      0.02s CPU      0.02s WALL (       1 calls)
     calcolo_i    :      0.01s CPU      0.01s WALL (       1 calls)
 IONIC CURRENT CALCULATED
     charge density from previous step

     total cpu time spent up to now is        1.5 secs

     Self-consistent Calculation

     iteration #  1     ecut=    40.00 Ry     beta= 0.70
     Davidson diagonalization with overlap
     ethr =  1.00E-07,  avg # of iterations =  4.0

     total cpu time spent up to now is        1.6 secs

     total energy              =    2117.27131265 Ry
     estimated scf accuracy    <       0.00039514 Ry

     iteration #  2     ecut=    40.00 Ry     beta= 0.70
     Davidson diagonalization with overlap
     ethr =  4.94E-06,  avg # of iterations =  2.0

     total cpu time spent up to now is        1.6 secs

     total energy              =    2117.27127274 Ry
     estimated scf accuracy    <       0.00000787 Ry

     iteration #  3     ecut=    40.00 Ry     beta= 0.70
     Davidson diagonalization with overlap
     ethr =  9.84E-08,  avg # of iterations =  2.0

     total cpu time spent up to now is        1.7 secs

     total energy              =    2117.27127247 Ry
     estimated scf accuracy    <       0.00000020 Ry

     iteration #  4     ecut=    40.00 Ry     beta= 0.70
     Davidson diagonalization with overlap
     ethr =  2.55E-09,  avg # of iterations =  2.0

     total cpu time spent up to now is        1.7 secs

     total energy              =    2117.27127246 Ry
     estimated scf accuracy    <          3.6E-09 Ry

     iteration #  5     ecut=    40.00 Ry     beta= 0.70
     Davidson diagonalization with overlap
     ethr =  4.53E-11,  avg # of iterations =  2.0

     total cpu time spent up to now is        1.8 secs

     total energy              =    2117.27127245 Ry
     estimated scf accuracy    <          4.3E-10 Ry

     iteration #  6     ecut=    40.00 Ry     beta= 0.70
     Davidson diagonalization with overlap
     ethr =  5.39E-12,  avg # of iterations =  2.0

     total cpu time spent up to now is        1.9 secs

     End of self-consistent calculation

          k = 0.0000 0.0000 0.0000 (  2169 PWs)   bands (ev):

   -36.1451 -12.4343 -12.4267 -12.4259

     highest occupied level (ev):   -12.4259

!    total energy              =    2117.27127245 Ry
     estimated scf accuracy    <          4.7E-12 Ry

     convergence has been achieved in   6 iterations
     charge density from previous step
 BEGIN: HARTREE & KOHN
 check_charge   4.00000000000000     
 check_charge   4.00000000000000     
 check_charge   4.00000000000000     
     hartree_curr :      0.02s CPU      0.02s WALL (       1 calls)
 HARTREE CURRENT CALCULATED
     xc_current   :      0.02s CPU      0.02s WALL (       1 calls)
 X-C CURRENT CALCULATED
     charge density from previous step
     project      :      0.12s CPU      0.12s WALL (       1 calls)
     kohn-first   :      0.00s CPU      0.00s WALL (       1 calls)
     kohn-second  :      0.00s CPU      0.00s WALL (       1 calls)
  KOHN POLARIZATION   1 COMPLETED
     project      :      0.23s CPU      0.24s WALL (       2 calls)
     kohn-first   :      0.00s CPU      0.00s WALL (       2 calls)
     kohn-second  :      0.00s CPU      0.00s WALL (       2 calls)
  KOHN POLARIZATION   2 COMPLETED
     project      :      0.34s CPU      0.34s WALL (       3 calls)
     kohn-first   :      0.00s CPU      0.00s WALL (       3 calls)
     kohn-second  :      0.00s CPU      0.00s WALL (       3 calls)
  KOHN POLARIZATION   3 COMPLETED
     kohn_current :      0.40s CPU      0.40s WALL (       1 calls)
 KOHN CURRENT CALCULATED
total energy current:   0.435804399183E+02  0.609461713535E+02  0.652955535851E+01
center of mass velocity of type   1:  -0.655865195716E-02  0.388259909892E-02  0.309411879974E-02
center of mass velocity of type   2:   0.117835578422E-01 -0.709993756873E-02 -0.537011079675E-02
 Finished reading trajectory  at step            0
 
     init_run     :      0.11s CPU      0.14s WALL (       1 calls)
     electrons    :      1.27s CPU      1.31s WALL (       3 calls)
     update_pot   :      0.17s CPU      0.20s WALL (       5 calls)

     Called by init_run:
     wfcinit      :      0.01s CPU      0.01s WALL (       1 calls)
     potinit      :      0.06s CPU      0.07s WALL (       1 calls)
     hinit0       :      0.03s CPU      0.04s WALL (       1 calls)

     Called by electrons:
     c_bands      :      0.35s CPU      0.35s WALL (      23 calls)
     sum_band     :      0.13s CPU      0.13s WALL (      25 calls)
     v_of_rho     :      0.93s CPU      0.99s WALL (      29 calls)
     mix_rho      :      0.06s CPU      0.07s WALL (      23 calls)

     Called by c_bands:
     init_us_2    :      0.00s CPU      0.00s WALL (      52 calls)
     regterg      :      0.34s CPU      0.35s WALL (      23 calls)

     Called by *egterg:
     rdiaghg      :      0.00s CPU      0.00s WALL (      69 calls)
     h_psi        :      0.66s CPU      0.66s WALL (     151 calls)
     g_psi        :      0.00s CPU      0.00s WALL (      48 calls)

     Called by h_psi:
     h_psi:calbec :      0.00s CPU      0.00s WALL (     151 calls)
     vloc_psi     :      0.65s CPU      0.66s WALL (     151 calls)
     add_vuspsi   :      0.00s CPU      0.00s WALL (     151 calls)

     General routines
     calbec       :      0.00s CPU      0.00s WALL (     252 calls)
     fft          :      0.25s CPU      0.25s WALL (     231 calls)
     ffts         :      0.03s CPU      0.03s WALL (      32 calls)
     fftw         :      0.65s CPU      0.65s WALL (     624 calls)
 
     Parallel routines
 
     PWSCF        :      2.24s CPU      2.39s WALL

 
   This run was terminated on:  16:43:19   5May2021            

=------------------------------------------------------------------------------=
   JOB DONE.
=------------------------------------------------------------------------------=
