
     Program PWSCF v.6.6 starts on 24Nov2020 at 19:16:44 

     This program is part of the open-source Quantum ESPRESSO suite
     for quantum simulation of materials; please cite
         "P. Giannozzi et al., J. Phys.:Condens. Matter 21 395502 (2009);
         "P. Giannozzi et al., J. Phys.:Condens. Matter 29 465901 (2017);
          URL http://www.quantum-espresso.org", 
     in publications or presentations arising from this work. More details at
     http://www.quantum-espresso.org/quote

     Parallel version (MPI), running on     1 processors

     MPI processes distributed on     1 nodes
 Using CP units for velocities
     Message from routine scan_end:
     No INFO block end statement, possibly corrupted file
 Cannot open trajectory file. I can calculate only a single step from input file

     Subspace diagonalization in iterative solution of the eigenvalue problem:
     a serial algorithm will be used


     G-vector sticks info
     --------------------
     sticks:   dense  smooth     PW     G-vecs:    dense   smooth      PW
     Sum        2561    2561    641                96969    96969   12053



     bravais-lattice index     =            1
     lattice parameter (alat)  =      10.0000  a.u.
     unit-cell volume          =    1000.0000 (a.u.)^3
     number of atoms/cell      =            3
     number of atomic types    =            2
     number of electrons       =         8.00
     number of Kohn-Sham states=            4
     kinetic-energy cutoff     =      80.0000  Ry
     charge density cutoff     =     320.0000  Ry
     convergence threshold     =      1.0E-11
     mixing beta               =       0.7000
     number of iterations used =            8  plain     mixing
     Exchange-correlation=  SLA  PW   PBX  PBC
                           (   1   4   3   4   0   0   0)
     nstep                     =           50


     celldm(1)=  10.000000  celldm(2)=   0.000000  celldm(3)=   0.000000
     celldm(4)=   0.000000  celldm(5)=   0.000000  celldm(6)=   0.000000

     crystal axes: (cart. coord. in units of alat)
               a(1) = (   1.000000   0.000000   0.000000 )  
               a(2) = (   0.000000   1.000000   0.000000 )  
               a(3) = (   0.000000   0.000000   1.000000 )  

     reciprocal axes: (cart. coord. in units 2 pi/alat)
               b(1) = (  1.000000  0.000000  0.000000 )  
               b(2) = (  0.000000  1.000000  0.000000 )  
               b(3) = (  0.000000  0.000000  1.000000 )  


     PseudoPot. # 1 for H  read from file:
     ../pseudo/H_HSCV_PBE-1.0.upf
     MD5 check sum: 9381039c3e76055a91507fe4cf572eb6
     Pseudo is Norm-conserving, Zval =  1.0
     Generated by new atomic code, or converted to UPF format
     Using radial grid of 2000 points,  0 beta functions with: 

     PseudoPot. # 2 for O  read from file:
     ../pseudo/O_HSCV_PBE-1.0.upf
     MD5 check sum: d1ac96ff7cc4673fd84f2420bd578511
     Pseudo is Norm-conserving, Zval =  6.0
     Generated by new atomic code, or converted to UPF format
     Using radial grid of 2000 points,  1 beta functions with: 
                l(1) =   0

     atomic species   valence    mass     pseudopotential
        H              1.00     1.00000     H ( 1.00)
        O              6.00    16.00000     O ( 1.00)

     No symmetry found



   Cartesian axes

     site n.     atom                  positions (alat units)
         1           H   tau(   1) = (  -0.0000381   0.0001164  -0.0000181  )
         2           H   tau(   2) = (   0.0001485  -0.0000658  -0.0003796  )
         3           O   tau(   3) = (  -0.0000069  -0.0000032   0.0000249  )

     number of k points=     1
                       cart. coord. in units 2pi/alat
        k(    1) = (   0.0000000   0.0000000   0.0000000), wk =   2.0000000

     Dense  grid:    48485 G-vectors     FFT dimensions: (  60,  60,  60)

     Estimated max dynamical RAM per process >      38.44 MB

     Initial potential from superposition of free atoms

     starting charge    7.99998, renormalised to    8.00000

     negative rho (up, down):  5.450E-07 0.000E+00
     Starting wfcs are    6 randomized atomic wfcs
     charge density from previous step

     negative rho (up, down):  5.450E-07 0.000E+00

     total cpu time spent up to now is        1.5 secs

     Self-consistent Calculation

     iteration #  1     ecut=    80.00 Ry     beta= 0.70
     Davidson diagonalization with overlap
     ethr =  1.00E-03,  avg # of iterations =  5.0

     negative rho (up, down):  6.567E-08 0.000E+00

     total cpu time spent up to now is        1.7 secs

     total energy              =    4070.09600867 Ry
     estimated scf accuracy    <       9.44209535 Ry

     iteration #  2     ecut=    80.00 Ry     beta= 0.70
     Davidson diagonalization with overlap
     ethr =  1.00E-02,  avg # of iterations =  3.0

     negative rho (up, down):  3.007E-08 0.000E+00

     total cpu time spent up to now is        1.9 secs

     total energy              =    4067.93408609 Ry
     estimated scf accuracy    <       1.32097534 Ry

     iteration #  3     ecut=    80.00 Ry     beta= 0.70
     Davidson diagonalization with overlap
     ethr =  1.00E-02,  avg # of iterations =  2.0

     negative rho (up, down):  4.177E-08 0.000E+00

     total cpu time spent up to now is        2.1 secs

     total energy              =    4067.49579378 Ry
     estimated scf accuracy    <       0.06483551 Ry

     iteration #  4     ecut=    80.00 Ry     beta= 0.70
     Davidson diagonalization with overlap
     ethr =  8.10E-04,  avg # of iterations =  2.0

     negative rho (up, down):  4.657E-04 0.000E+00

     total cpu time spent up to now is        2.3 secs

     total energy              =    4067.57535002 Ry
     estimated scf accuracy    <       0.14914178 Ry

     iteration #  5     ecut=    80.00 Ry     beta= 0.70
     Davidson diagonalization with overlap
     ethr =  8.10E-04,  avg # of iterations =  2.0

     negative rho (up, down):  2.023E-04 0.000E+00

     total cpu time spent up to now is        2.5 secs

     total energy              =    4067.55422204 Ry
     estimated scf accuracy    <       0.00316839 Ry

     iteration #  6     ecut=    80.00 Ry     beta= 0.70
     Davidson diagonalization with overlap
     ethr =  3.96E-05,  avg # of iterations =  1.0

     negative rho (up, down):  1.650E-04 0.000E+00

     total cpu time spent up to now is        2.6 secs

     total energy              =    4067.55406594 Ry
     estimated scf accuracy    <       0.00078473 Ry

     iteration #  7     ecut=    80.00 Ry     beta= 0.70
     Davidson diagonalization with overlap
     ethr =  9.81E-06,  avg # of iterations =  1.0

     total cpu time spent up to now is        2.8 secs

     total energy              =    4067.55421804 Ry
     estimated scf accuracy    <       0.00048758 Ry

     iteration #  8     ecut=    80.00 Ry     beta= 0.70
     Davidson diagonalization with overlap
     ethr =  6.09E-06,  avg # of iterations =  1.0

     total cpu time spent up to now is        3.0 secs

     total energy              =    4067.55424132 Ry
     estimated scf accuracy    <       0.00006448 Ry

     iteration #  9     ecut=    80.00 Ry     beta= 0.70
     Davidson diagonalization with overlap
     ethr =  8.06E-07,  avg # of iterations =  2.0

     total cpu time spent up to now is        3.2 secs

     total energy              =    4067.55422290 Ry
     estimated scf accuracy    <       0.00000255 Ry

     iteration # 10     ecut=    80.00 Ry     beta= 0.70
     Davidson diagonalization with overlap
     ethr =  3.18E-08,  avg # of iterations =  2.0

     total cpu time spent up to now is        3.3 secs

     total energy              =    4067.55422260 Ry
     estimated scf accuracy    <       0.00000017 Ry

     iteration # 11     ecut=    80.00 Ry     beta= 0.70
     Davidson diagonalization with overlap
     ethr =  2.14E-09,  avg # of iterations =  1.0

     total cpu time spent up to now is        3.5 secs

     total energy              =    4067.55422262 Ry
     estimated scf accuracy    <       0.00000012 Ry

     iteration # 12     ecut=    80.00 Ry     beta= 0.70
     Davidson diagonalization with overlap
     ethr =  1.48E-09,  avg # of iterations =  1.0

     total cpu time spent up to now is        3.7 secs

     total energy              =    4067.55422262 Ry
     estimated scf accuracy    <       0.00000005 Ry

     iteration # 13     ecut=    80.00 Ry     beta= 0.70
     Davidson diagonalization with overlap
     ethr =  5.89E-10,  avg # of iterations =  1.0

     total cpu time spent up to now is        3.9 secs

     total energy              =    4067.55422262 Ry
     estimated scf accuracy    <       0.00000002 Ry

     iteration # 14     ecut=    80.00 Ry     beta= 0.70
     Davidson diagonalization with overlap
     ethr =  2.53E-10,  avg # of iterations =  2.0

     total cpu time spent up to now is        4.1 secs

     total energy              =    4067.55422262 Ry
     estimated scf accuracy    <          6.6E-09 Ry

     iteration # 15     ecut=    80.00 Ry     beta= 0.70
     Davidson diagonalization with overlap
     ethr =  8.20E-11,  avg # of iterations =  1.0

     total cpu time spent up to now is        4.2 secs

     total energy              =    4067.55422262 Ry
     estimated scf accuracy    <          1.3E-09 Ry

     iteration # 16     ecut=    80.00 Ry     beta= 0.70
     Davidson diagonalization with overlap
     ethr =  1.60E-11,  avg # of iterations =  2.0

     total cpu time spent up to now is        4.4 secs

     End of self-consistent calculation

          k = 0.0000 0.0000 0.0000 (  6027 PWs)   bands (ev):

   -32.0451 -13.0446 -13.0409 -13.0409

     highest occupied level (ev):   -13.0409

!    total energy              =    4067.55422262 Ry
     estimated scf accuracy    <          2.7E-13 Ry

     convergence has been achieved in  16 iterations
     charge density from previous step

     total cpu time spent up to now is        4.5 secs

     Self-consistent Calculation

     iteration #  1     ecut=    80.00 Ry     beta= 0.70
     Davidson diagonalization with overlap
     ethr =  1.00E-07,  avg # of iterations =  5.0

     total cpu time spent up to now is        4.7 secs

     total energy              =   12293.00716019 Ry
     estimated scf accuracy    <       0.00044956 Ry

     iteration #  2     ecut=    80.00 Ry     beta= 0.70
     Davidson diagonalization with overlap
     ethr =  5.62E-06,  avg # of iterations =  2.0

     total cpu time spent up to now is        4.9 secs

     total energy              =   12293.00712743 Ry
     estimated scf accuracy    <       0.00001208 Ry

     iteration #  3     ecut=    80.00 Ry     beta= 0.70
     Davidson diagonalization with overlap
     ethr =  1.51E-07,  avg # of iterations =  2.0

     total cpu time spent up to now is        5.0 secs

     total energy              =   12293.00712638 Ry
     estimated scf accuracy    <       0.00000020 Ry

     iteration #  4     ecut=    80.00 Ry     beta= 0.70
     Davidson diagonalization with overlap
     ethr =  2.49E-09,  avg # of iterations =  2.0

     total cpu time spent up to now is        5.2 secs

     total energy              =   12293.00712635 Ry
     estimated scf accuracy    <          9.4E-09 Ry

     iteration #  5     ecut=    80.00 Ry     beta= 0.70
     Davidson diagonalization with overlap
     ethr =  1.18E-10,  avg # of iterations =  2.0

     total cpu time spent up to now is        5.4 secs

     total energy              =   12293.00712635 Ry
     estimated scf accuracy    <          6.7E-10 Ry

     iteration #  6     ecut=    80.00 Ry     beta= 0.70
     Davidson diagonalization with overlap
     ethr =  8.35E-12,  avg # of iterations =  1.0

     total cpu time spent up to now is        5.6 secs

     total energy              =   12293.00712635 Ry
     estimated scf accuracy    <          2.8E-11 Ry

     iteration #  7     ecut=    80.00 Ry     beta= 0.70
     Davidson diagonalization with overlap
     ethr =  3.48E-13,  avg # of iterations =  2.0

     total cpu time spent up to now is        5.7 secs

     End of self-consistent calculation

          k = 0.0000 0.0000 0.0000 (  6027 PWs)   bands (ev):

   -32.0436 -13.0424 -13.0418 -13.0418

     highest occupied level (ev):   -13.0418

!    total energy              =   12293.00712635 Ry
     estimated scf accuracy    <          2.9E-13 Ry

     convergence has been achieved in   7 iterations
 ROUTINE_ZERO BEGINNING
 check_charge   4.0000000000000302     
     zero_current :      0.08s CPU      0.09s WALL (       1 calls)
 ZERO CURRENT CALCULATED
     routine_zero :      0.08s CPU      0.09s WALL (       1 calls)
     calcolo_i    :      0.00s CPU      0.00s WALL (       1 calls)
 IONIC CURRENT CALCULATED
     charge density from previous step

     total cpu time spent up to now is        5.9 secs

     Self-consistent Calculation

     iteration #  1     ecut=    80.00 Ry     beta= 0.70
     Davidson diagonalization with overlap
     ethr =  1.00E-07,  avg # of iterations =  6.0

     total cpu time spent up to now is        6.1 secs

     total energy              =    2115.00631725 Ry
     estimated scf accuracy    <       0.00045061 Ry

     iteration #  2     ecut=    80.00 Ry     beta= 0.70
     Davidson diagonalization with overlap
     ethr =  5.63E-06,  avg # of iterations =  2.0

     total cpu time spent up to now is        6.3 secs

     total energy              =    2115.00628421 Ry
     estimated scf accuracy    <       0.00001197 Ry

     iteration #  3     ecut=    80.00 Ry     beta= 0.70
     Davidson diagonalization with overlap
     ethr =  1.50E-07,  avg # of iterations =  2.0

     total cpu time spent up to now is        6.5 secs

     total energy              =    2115.00628318 Ry
     estimated scf accuracy    <       0.00000025 Ry

     iteration #  4     ecut=    80.00 Ry     beta= 0.70
     Davidson diagonalization with overlap
     ethr =  3.09E-09,  avg # of iterations =  2.0

     total cpu time spent up to now is        6.6 secs

     total energy              =    2115.00628313 Ry
     estimated scf accuracy    <       0.00000005 Ry

     iteration #  5     ecut=    80.00 Ry     beta= 0.70
     Davidson diagonalization with overlap
     ethr =  5.78E-10,  avg # of iterations =  2.0

     total cpu time spent up to now is        6.8 secs

     total energy              =    2115.00628312 Ry
     estimated scf accuracy    <          8.9E-10 Ry

     iteration #  6     ecut=    80.00 Ry     beta= 0.70
     Davidson diagonalization with overlap
     ethr =  1.11E-11,  avg # of iterations =  2.0

     total cpu time spent up to now is        7.0 secs

     total energy              =    2115.00628312 Ry
     estimated scf accuracy    <          8.0E-11 Ry

     iteration #  7     ecut=    80.00 Ry     beta= 0.70
     Davidson diagonalization with overlap
     ethr =  1.00E-12,  avg # of iterations =  2.0

     total cpu time spent up to now is        7.1 secs

     End of self-consistent calculation

          k = 0.0000 0.0000 0.0000 (  6027 PWs)   bands (ev):

   -32.0511 -13.0492 -13.0389 -13.0388

     highest occupied level (ev):   -13.0388

!    total energy              =    2115.00628312 Ry
     estimated scf accuracy    <          7.4E-13 Ry

     convergence has been achieved in   7 iterations
 BEGIN: HARTREE & KOHN
 check_charge   4.0000000000000018     
 check_charge   4.0000000000000471     
 check_charge   4.0000000000000302     
     hartree_curr :      0.12s CPU      0.13s WALL (       1 calls)
 HARTREE CURRENT CALCULATED
     xc_current   :      0.05s CPU      0.05s WALL (       1 calls)
 X-C CURRENT CALCULATED
     charge density from previous step
     project      :      0.25s CPU      0.31s WALL (       1 calls)
     kohn-first   :      0.00s CPU      0.00s WALL (       1 calls)
     kohn-second  :      0.00s CPU      0.00s WALL (       1 calls)
  KOHN POLARIZATION   1 COMPLETED
     project      :      0.51s CPU      0.59s WALL (       2 calls)
     kohn-first   :      0.00s CPU      0.00s WALL (       2 calls)
     kohn-second  :      0.00s CPU      0.00s WALL (       2 calls)
  KOHN POLARIZATION   2 COMPLETED
     project      :      0.95s CPU      1.05s WALL (       3 calls)
     kohn-first   :      0.00s CPU      0.00s WALL (       3 calls)
     kohn-second  :      0.00s CPU      0.00s WALL (       3 calls)
  KOHN POLARIZATION   3 COMPLETED
     kohn_current :      1.09s CPU      1.20s WALL (       1 calls)
 KOHN CURRENT CALCULATED
total energy current:   0.138449763162E+01  0.441220668447E+02  0.608915741165E+02
center of mass velocity of type   1:   0.357014885507E-02  0.572352503005E-02 -0.470737302409E-02
center of mass velocity of type   2:  -0.660087285688E-02 -0.102505299663E-01  0.833393975301E-02
 Finished reading trajectory  at step            0

     init_run     :      0.30s CPU      0.36s WALL (       1 calls)
     electrons    :      4.49s CPU      5.30s WALL (       3 calls)
     update_pot   :      0.36s CPU      0.45s WALL (       4 calls)

     Called by init_run:
     wfcinit      :      0.02s CPU      0.03s WALL (       1 calls)
     potinit      :      0.16s CPU      0.20s WALL (       1 calls)
     hinit0       :      0.11s CPU      0.12s WALL (       1 calls)

     Called by electrons:
     c_bands      :      0.94s CPU      1.01s WALL (      30 calls)
     sum_band     :      0.58s CPU      0.61s WALL (      31 calls)
     v_of_rho     :      2.84s CPU      3.52s WALL (      35 calls)
     mix_rho      :      0.53s CPU      0.67s WALL (      30 calls)

     Called by c_bands:
     init_us_2    :      0.03s CPU      0.03s WALL (      63 calls)
     regterg      :      0.92s CPU      0.99s WALL (      30 calls)

     Called by *egterg:
     rdiaghg      :      0.00s CPU      0.00s WALL (      91 calls)
     h_psi        :      1.62s CPU      1.80s WALL (     175 calls)
     g_psi        :      0.00s CPU      0.00s WALL (      63 calls)

     Called by h_psi:
     h_psi:calbec :      0.01s CPU      0.01s WALL (     175 calls)
     vloc_psi     :      1.60s CPU      1.77s WALL (     175 calls)
     add_vuspsi   :      0.01s CPU      0.01s WALL (     175 calls)

     General routines
     calbec       :      0.02s CPU      0.02s WALL (     278 calls)
     fft          :      1.48s CPU      1.60s WALL (     278 calls)
     ffts         :      0.11s CPU      0.11s WALL (      38 calls)
     fftw         :      1.64s CPU      1.81s WALL (     720 calls)

     Parallel routines

     PWSCF        :      7.43s CPU      8.53s WALL


   This run was terminated on:  19:16:53  24Nov2020            

=------------------------------------------------------------------------------=
   JOB DONE.
=------------------------------------------------------------------------------=
