
     Program PWSCF v.6.5 starts on 18Aug2020 at 15: 6:10 

     This program is part of the open-source Quantum ESPRESSO suite
     for quantum simulation of materials; please cite
         "P. Giannozzi et al., J. Phys.:Condens. Matter 21 395502 (2009);
         "P. Giannozzi et al., J. Phys.:Condens. Matter 29 465901 (2017);
          URL http://www.quantum-espresso.org", 
     in publications or presentations arising from this work. More details at
     http://www.quantum-espresso.org/quote

     Parallel version (MPI), running on     1 processors

     MPI processes distributed on     1 nodes
     Fft bands division:     nmany     =       1
 Using CP units for velocities
 Cannot open trajectory file. I can calculate only a single step from input file

     Subspace diagonalization in iterative solution of the eigenvalue problem:
     a serial algorithm will be used

 
     G-vector sticks info
     --------------------
     sticks:   dense  smooth     PW     G-vecs:    dense   smooth      PW
     Sum        2561    2561    641                96969    96969   12053
 


     bravais-lattice index     =            0
     lattice parameter (alat)  =      10.0000  a.u.
     unit-cell volume          =    1000.0000 (a.u.)^3
     number of atoms/cell      =            3
     number of atomic types    =            2
     number of electrons       =         8.00
     number of Kohn-Sham states=            4
     kinetic-energy cutoff     =      80.0000  Ry
     charge density cutoff     =     320.0000  Ry
     convergence threshold     =      1.0E-11
     mixing beta               =       0.7000
     number of iterations used =            8  plain     mixing
     Exchange-correlation=  SLA  PW   PBX  PBC
                           (   1   4   3   4   0   0   0)
     nstep                     =           50


     celldm(1)=  10.000000  celldm(2)=   0.000000  celldm(3)=   0.000000
     celldm(4)=   0.000000  celldm(5)=   0.000000  celldm(6)=   0.000000

     crystal axes: (cart. coord. in units of alat)
               a(1) = (  -0.562667   0.496057  -0.661312 )  
               a(2) = (  -0.122534   0.741076   0.660145 )  
               a(3) = (   0.817552   0.452475  -0.356195 )  

     reciprocal axes: (cart. coord. in units 2 pi/alat)
               b(1) = ( -0.562667  0.496057 -0.661312 )  
               b(2) = ( -0.122534  0.741076  0.660145 )  
               b(3) = (  0.817552  0.452475 -0.356195 )  


     PseudoPot. # 1 for H  read from file:
     ../pseudo/H_HSCV_PBE-1.0.upf
     MD5 check sum: 9381039c3e76055a91507fe4cf572eb6
     Pseudo is Norm-conserving, Zval =  1.0
     Generated by new atomic code, or converted to UPF format
     Using radial grid of 2000 points,  0 beta functions with: 

     PseudoPot. # 2 for O  read from file:
     ../pseudo/O_HSCV_PBE-1.0.upf
     MD5 check sum: d1ac96ff7cc4673fd84f2420bd578511
     Pseudo is Norm-conserving, Zval =  6.0
     Generated by new atomic code, or converted to UPF format
     Using radial grid of 2000 points,  1 beta functions with: 
                l(1) =   0

     atomic species   valence    mass     pseudopotential
        H              1.00     1.00000     H ( 1.00)
        O              6.00    16.00000     O ( 1.00)

     No symmetry found



   Cartesian axes

     site n.     atom                  positions (alat units)
         1           H   tau(   1) = (  -0.0000076   0.0000592   0.0001085  )
         2           H   tau(   2) = (  -0.0003859  -0.0001469  -0.0000065  )
         3           O   tau(   3) = (   0.0000246   0.0000055  -0.0000064  )

     number of k points=     1
                       cart. coord. in units 2pi/alat
        k(    1) = (   0.0000000   0.0000000   0.0000000), wk =   2.0000000

     Dense  grid:    48485 G-vectors     FFT dimensions: (  60,  60,  60)

     Estimated max dynamical RAM per process >      39.92 MB

     Initial potential from superposition of free atoms

     starting charge    7.99998, renormalised to    8.00000

     negative rho (up, down):  5.450E-07 0.000E+00
     Starting wfcs are    6 randomized atomic wfcs
     charge density from previous step

     negative rho (up, down):  5.450E-07 0.000E+00

     total cpu time spent up to now is        0.4 secs

     Self-consistent Calculation

     iteration #  1     ecut=    80.00 Ry     beta= 0.70
     Davidson diagonalization with overlap
     ethr =  1.00E-07,  avg # of iterations =  6.0

     negative rho (up, down):  6.986E-08 0.000E+00

     total cpu time spent up to now is        0.5 secs

     total energy              =    4070.15282301 Ry
     estimated scf accuracy    <       9.52043174 Ry

     iteration #  2     ecut=    80.00 Ry     beta= 0.70
     Davidson diagonalization with overlap
     ethr =  1.00E-02,  avg # of iterations =  3.0

     negative rho (up, down):  3.277E-08 0.000E+00

     total cpu time spent up to now is        0.6 secs

     total energy              =    4067.98811010 Ry
     estimated scf accuracy    <       1.44434379 Ry

     iteration #  3     ecut=    80.00 Ry     beta= 0.70
     Davidson diagonalization with overlap
     ethr =  1.00E-02,  avg # of iterations =  2.0

     negative rho (up, down):  4.357E-08 0.000E+00

     total cpu time spent up to now is        0.7 secs

     total energy              =    4067.48491409 Ry
     estimated scf accuracy    <       0.09150309 Ry

     iteration #  4     ecut=    80.00 Ry     beta= 0.70
     Davidson diagonalization with overlap
     ethr =  1.14E-03,  avg # of iterations =  1.0

     negative rho (up, down):  6.655E-04 0.000E+00

     total cpu time spent up to now is        0.8 secs

     total energy              =    4067.60050153 Ry
     estimated scf accuracy    <       0.16928057 Ry

     iteration #  5     ecut=    80.00 Ry     beta= 0.70
     Davidson diagonalization with overlap
     ethr =  1.14E-03,  avg # of iterations =  2.0

     negative rho (up, down):  4.572E-05 0.000E+00

     total cpu time spent up to now is        0.9 secs

     total energy              =    4067.55450775 Ry
     estimated scf accuracy    <       0.01127692 Ry

     iteration #  6     ecut=    80.00 Ry     beta= 0.70
     Davidson diagonalization with overlap
     ethr =  1.41E-04,  avg # of iterations =  1.0

     total cpu time spent up to now is        0.9 secs

     total energy              =    4067.55457325 Ry
     estimated scf accuracy    <       0.00172862 Ry

     iteration #  7     ecut=    80.00 Ry     beta= 0.70
     Davidson diagonalization with overlap
     ethr =  2.16E-05,  avg # of iterations =  2.0

     total cpu time spent up to now is        1.0 secs

     total energy              =    4067.55422282 Ry
     estimated scf accuracy    <       0.00000808 Ry

     iteration #  8     ecut=    80.00 Ry     beta= 0.70
     Davidson diagonalization with overlap
     ethr =  1.01E-07,  avg # of iterations =  2.0

     total cpu time spent up to now is        1.1 secs

     total energy              =    4067.55422232 Ry
     estimated scf accuracy    <       0.00000199 Ry

     iteration #  9     ecut=    80.00 Ry     beta= 0.70
     Davidson diagonalization with overlap
     ethr =  2.49E-08,  avg # of iterations =  1.0

     total cpu time spent up to now is        1.2 secs

     total energy              =    4067.55422249 Ry
     estimated scf accuracy    <       0.00000085 Ry

     iteration # 10     ecut=    80.00 Ry     beta= 0.70
     Davidson diagonalization with overlap
     ethr =  1.07E-08,  avg # of iterations =  1.0

     total cpu time spent up to now is        1.3 secs

     total energy              =    4067.55422263 Ry
     estimated scf accuracy    <       0.00000038 Ry

     iteration # 11     ecut=    80.00 Ry     beta= 0.70
     Davidson diagonalization with overlap
     ethr =  4.73E-09,  avg # of iterations =  1.0

     total cpu time spent up to now is        1.4 secs

     total energy              =    4067.55422261 Ry
     estimated scf accuracy    <       0.00000004 Ry

     iteration # 12     ecut=    80.00 Ry     beta= 0.70
     Davidson diagonalization with overlap
     ethr =  5.22E-10,  avg # of iterations =  2.0

     total cpu time spent up to now is        1.4 secs

     total energy              =    4067.55422262 Ry
     estimated scf accuracy    <       0.00000002 Ry

     iteration # 13     ecut=    80.00 Ry     beta= 0.70
     Davidson diagonalization with overlap
     ethr =  2.02E-10,  avg # of iterations =  2.0

     total cpu time spent up to now is        1.5 secs

     total energy              =    4067.55422262 Ry
     estimated scf accuracy    <          4.4E-10 Ry

     iteration # 14     ecut=    80.00 Ry     beta= 0.70
     Davidson diagonalization with overlap
     ethr =  5.45E-12,  avg # of iterations =  1.0

     total cpu time spent up to now is        1.6 secs

     total energy              =    4067.55422262 Ry
     estimated scf accuracy    <          2.7E-11 Ry

     iteration # 15     ecut=    80.00 Ry     beta= 0.70
     Davidson diagonalization with overlap
     ethr =  3.38E-13,  avg # of iterations =  2.0

     total cpu time spent up to now is        1.7 secs

     End of self-consistent calculation

          k = 0.0000 0.0000 0.0000 (  6027 PWs)   bands (ev):

   -32.0451 -13.0446 -13.0409 -13.0409

     highest occupied level (ev):   -13.0409

!    total energy              =    4067.55422262 Ry
     estimated scf accuracy    <          3.7E-13 Ry

     convergence has been achieved in  15 iterations
     charge density from previous step

     total cpu time spent up to now is        1.8 secs

     Self-consistent Calculation

     iteration #  1     ecut=    80.00 Ry     beta= 0.70
     Davidson diagonalization with overlap
     ethr =  1.00E-07,  avg # of iterations =  4.0

     total cpu time spent up to now is        1.9 secs

     total energy              =   12293.00716096 Ry
     estimated scf accuracy    <       0.00045148 Ry

     iteration #  2     ecut=    80.00 Ry     beta= 0.70
     Davidson diagonalization with overlap
     ethr =  5.64E-06,  avg # of iterations =  2.0

     total cpu time spent up to now is        1.9 secs

     total energy              =   12293.00712733 Ry
     estimated scf accuracy    <       0.00001165 Ry

     iteration #  3     ecut=    80.00 Ry     beta= 0.70
     Davidson diagonalization with overlap
     ethr =  1.46E-07,  avg # of iterations =  2.0

     total cpu time spent up to now is        2.0 secs

     total energy              =   12293.00712637 Ry
     estimated scf accuracy    <       0.00000019 Ry

     iteration #  4     ecut=    80.00 Ry     beta= 0.70
     Davidson diagonalization with overlap
     ethr =  2.43E-09,  avg # of iterations =  2.0

     total cpu time spent up to now is        2.1 secs

     total energy              =   12293.00712635 Ry
     estimated scf accuracy    <          9.2E-09 Ry

     iteration #  5     ecut=    80.00 Ry     beta= 0.70
     Davidson diagonalization with overlap
     ethr =  1.15E-10,  avg # of iterations =  2.0

     total cpu time spent up to now is        2.2 secs

     total energy              =   12293.00712635 Ry
     estimated scf accuracy    <          7.5E-10 Ry

     iteration #  6     ecut=    80.00 Ry     beta= 0.70
     Davidson diagonalization with overlap
     ethr =  9.35E-12,  avg # of iterations =  2.0

     total cpu time spent up to now is        2.3 secs

     total energy              =   12293.00712635 Ry
     estimated scf accuracy    <          1.8E-11 Ry

     iteration #  7     ecut=    80.00 Ry     beta= 0.70
     Davidson diagonalization with overlap
     ethr =  2.31E-13,  avg # of iterations =  2.0

     total cpu time spent up to now is        2.3 secs

     End of self-consistent calculation

          k = 0.0000 0.0000 0.0000 (  6027 PWs)   bands (ev):

   -32.0436 -13.0424 -13.0418 -13.0418

     highest occupied level (ev):   -13.0418

!    total energy              =   12293.00712635 Ry
     estimated scf accuracy    <          3.0E-13 Ry

     convergence has been achieved in   7 iterations
 INIZIO ROUTINE ZERO
 eta  0.100000000000000     
 check_charge   4.00000000000000     
     zero_current :      0.16s CPU      0.16s WALL (       1 calls)
 CORRENTE ZERO CALCOLATA
     calcolo_i    :      0.00s CPU      0.00s WALL (       1 calls)
 CORRENTE IONIC CALCOLATA
     routine_zero :      0.16s CPU      0.16s WALL (       1 calls)
     charge density from previous step

     total cpu time spent up to now is        2.6 secs

     Self-consistent Calculation

     iteration #  1     ecut=    80.00 Ry     beta= 0.70
     Davidson diagonalization with overlap
     ethr =  1.00E-07,  avg # of iterations =  4.0

     total cpu time spent up to now is        2.7 secs

     total energy              =    2115.00631784 Ry
     estimated scf accuracy    <       0.00045146 Ry

     iteration #  2     ecut=    80.00 Ry     beta= 0.70
     Davidson diagonalization with overlap
     ethr =  5.64E-06,  avg # of iterations =  2.0

     total cpu time spent up to now is        2.7 secs

     total energy              =    2115.00628406 Ry
     estimated scf accuracy    <       0.00001169 Ry

     iteration #  3     ecut=    80.00 Ry     beta= 0.70
     Davidson diagonalization with overlap
     ethr =  1.46E-07,  avg # of iterations =  2.0

     total cpu time spent up to now is        2.8 secs

     total energy              =    2115.00628317 Ry
     estimated scf accuracy    <       0.00000026 Ry

     iteration #  4     ecut=    80.00 Ry     beta= 0.70
     Davidson diagonalization with overlap
     ethr =  3.22E-09,  avg # of iterations =  2.0

     total cpu time spent up to now is        2.9 secs

     total energy              =    2115.00628313 Ry
     estimated scf accuracy    <       0.00000005 Ry

     iteration #  5     ecut=    80.00 Ry     beta= 0.70
     Davidson diagonalization with overlap
     ethr =  5.96E-10,  avg # of iterations =  2.0

     total cpu time spent up to now is        3.0 secs

     total energy              =    2115.00628312 Ry
     estimated scf accuracy    <          6.8E-10 Ry

     iteration #  6     ecut=    80.00 Ry     beta= 0.70
     Davidson diagonalization with overlap
     ethr =  8.55E-12,  avg # of iterations =  1.0

     total cpu time spent up to now is        3.1 secs

     total energy              =    2115.00628312 Ry
     estimated scf accuracy    <          2.1E-11 Ry

     iteration #  7     ecut=    80.00 Ry     beta= 0.70
     Davidson diagonalization with overlap
     ethr =  2.61E-13,  avg # of iterations =  2.0

     total cpu time spent up to now is        3.1 secs

     End of self-consistent calculation

          k = 0.0000 0.0000 0.0000 (  6027 PWs)   bands (ev):

   -32.0511 -13.0492 -13.0389 -13.0388

     highest occupied level (ev):   -13.0388

!    total energy              =    2115.00628312 Ry
     estimated scf accuracy    <          1.5E-13 Ry

     convergence has been achieved in   7 iterations
 BEGIN: HARTREE & KOHN
 check_charge   4.00000000000000     
 check_charge   3.99999999999999     
 check_charge   4.00000000000000     
     hartree_curr :      0.03s CPU      0.03s WALL (       1 calls)
 HARTREE CURRENT CALCULATED
     xc_current   :      0.02s CPU      0.02s WALL (       1 calls)
 CORRENTE X-C CALCULATED
     project      :      0.15s CPU      0.15s WALL (       1 calls)
     kohn-first   :      0.00s CPU      0.00s WALL (       1 calls)
     kohn-second  :      0.00s CPU      0.00s WALL (       1 calls)
  KOHN POLARIZATION   1 COMPLETED
     project      :      0.30s CPU      0.30s WALL (       2 calls)
     kohn-first   :      0.00s CPU      0.00s WALL (       2 calls)
     kohn-second  :      0.00s CPU      0.00s WALL (       2 calls)
  KOHN POLARIZATION   2 COMPLETED
     project      :      0.46s CPU      0.46s WALL (       3 calls)
     kohn-first   :      0.00s CPU      0.00s WALL (       3 calls)
     kohn-second  :      0.00s CPU      0.00s WALL (       3 calls)
  KOHN POLARIZATION   3 COMPLETED
     kohn_current :      0.47s CPU      0.47s WALL (       1 calls)
 KOHN CURRENT CALCULATED
     routine_hart :      0.52s CPU      0.52s WALL (       1 calls)
total energy current:   0.435965682967E+02  0.609365003272E+02  0.652211729572E+01
center of mass velocity of type   1:  -0.655865195716E-02  0.388259909892E-02  0.309411879974E-02
center of mass velocity of type   2:   0.117835578422E-01 -0.709993756873E-02 -0.537011079675E-02
 Finished reading trajectory  at step            0
 
     init_run     :      0.12s CPU      0.14s WALL (       1 calls)
     electrons    :      2.35s CPU      2.46s WALL (       3 calls)
     update_pot   :      0.16s CPU      0.19s WALL (       3 calls)

     Called by init_run:
     wfcinit      :      0.01s CPU      0.01s WALL (       1 calls)
     potinit      :      0.07s CPU      0.08s WALL (       1 calls)
     hinit0       :      0.03s CPU      0.03s WALL (       1 calls)

     Called by electrons:
     c_bands      :      0.56s CPU      0.56s WALL (      29 calls)
     sum_band     :      0.19s CPU      0.19s WALL (      29 calls)
     v_of_rho     :      1.53s CPU      1.64s WALL (      33 calls)
     mix_rho      :      0.22s CPU      0.23s WALL (      29 calls)

     Called by c_bands:
     init_us_2    :      0.01s CPU      0.01s WALL (      61 calls)
     regterg      :      0.55s CPU      0.55s WALL (      29 calls)

     Called by *egterg:
     rdiaghg      :      0.00s CPU      0.00s WALL (      87 calls)
     h_psi        :      0.95s CPU      0.95s WALL (     173 calls)
     g_psi        :      0.00s CPU      0.00s WALL (      60 calls)

     Called by h_psi:
     h_psi:calbec :      0.00s CPU      0.00s WALL (     173 calls)
     vloc_psi     :      0.94s CPU      0.94s WALL (     173 calls)
     add_vuspsi   :      0.00s CPU      0.00s WALL (     173 calls)

     General routines
     calbec       :      0.00s CPU      0.00s WALL (     278 calls)
     fft          :      0.34s CPU      0.35s WALL (     261 calls)
     ffts         :      0.05s CPU      0.05s WALL (      36 calls)
     fftw         :      0.91s CPU      0.91s WALL (     716 calls)
 
     Parallel routines
 
     PWSCF        :      3.48s CPU      3.69s WALL

 
   This run was terminated on:  15: 6:14  18Aug2020            

=------------------------------------------------------------------------------=
   JOB DONE.
=------------------------------------------------------------------------------=
