
     Program CP v.6.4.1 starts on 31Oct2020 at 16:34:10 

     This program is part of the open-source Quantum ESPRESSO suite
     for quantum simulation of materials; please cite
         "P. Giannozzi et al., J. Phys.:Condens. Matter 21 395502 (2009);
         "P. Giannozzi et al., J. Phys.:Condens. Matter 29 465901 (2017);
          URL http://www.quantum-espresso.org", 
     in publications or presentations arising from this work. More details at
     http://www.quantum-espresso.org/quote

     Parallel version (MPI), running on     4 processors

     MPI processes distributed on     1 nodes
     R & G space division:  proc/nbgrp/npool/nimage =       4
     Waiting for input...
     Reading input from standard input

   Job Title:  Water Molecule


   Atomic Pseudopotentials Parameters
   ----------------------------------

   Reading pseudopotential for specie #  1 from file :
   /scratch/gpfs/mandrade/codes/devel/q-e-gpu/pseudo/O.blyp-mt.UPF
   file type is UPF v.2

   Reading pseudopotential for specie #  2 from file :
   /scratch/gpfs/mandrade/codes/devel/q-e-gpu/pseudo/H.blyp-vbc.UPF
   file type is UPF v.2

     IMPORTANT: XC functional enforced from input :
     Exchange-correlation= B3LYP
                           (   7  12   9   7   0   0   0)
     EXX-fraction              =        0.20
     Any further DFT definition will be discarded
     Please, verify this is what you really want



   Main Simulation Parameters (from input)
   ---------------------------------------
   Restart Mode       =       1   restart        
   Number of MD Steps =      50
   Print out every           50 MD Steps
   Reads from unit    =      51
   Writes to unit     =      51
   MD Simulation time step            =       5.00
   Electronic fictitious mass (emass) =     400.00
   emass cut-off                      =       2.50

   Simulation Cell Parameters (from input)
   external pressure       =            0.00 [KBar]
   wmass (calculated)      =         2493.41 [AU]
   ibrav =   14
   alat  =    12.00000000
   a1    =    12.00000000    0.00000000    0.00000000
   a2    =     0.00000000   12.00000000    0.00000000
   a3    =     0.00000000    0.00000000   12.00000000
 
   b1    =     0.08333333    0.00000000    0.00000000
   b2    =     0.00000000    0.08333333    0.00000000
   b3    =     0.00000000    0.00000000    0.08333333
   omega =    1728.00000000

   Energy Cut-offs
   ---------------
   Ecutwfc =   40.0 Ry,      Ecutrho =  160.0 Ry,      Ecuts =  160.0 Ry
   Gcutwfc =   12.1     ,    Gcutrho =   24.2          Gcuts =   24.2
   NOTA BENE: refg, mmx =   0.050000  3840
   Eigenvalues calculated without the kinetic term contribution
   Orthog. with lagrange multipliers : eps =   0.10E-08,  max = 300
   verlet algorithm for electron dynamics
   with friction frice =  0.2000 , grease =  1.0000
   Electron dynamics : the temperature is not controlled

   Electronic states
   -----------------
   Number of Electrons=     8, of States =     4
   Occupation numbers :
   2.00 2.00 2.00 2.00


   Exchange and correlations functionals
   -------------------------------------
     Exchange-correlation= B3LYP
                           (   7  12   9   7   0   0   0)
     EXX-fraction              =        0.20


   Ions Simulation Parameters
   --------------------------
   Ions are not allowed to move
   Initial random displacement of ionic coordinates
    specie  amplitude
         2   0.200000
   Ionic position (from input)
   sorted by specie, and converted to real a.u. coordinates
   Species   1 atoms =    1 mass =     29166.22 (a.u.),        16.00 (amu) rcmax =   0.80 (a.u.)
        0.009900     0.009900     0.000000
   Species   2 atoms =    2 mass =      1822.89 (a.u.),         1.00 (amu) rcmax =   0.80 (a.u.)
        1.832500    -0.224300    -0.000100
       -0.224300     1.832500     0.000200
   Ionic position will be re-read from restart file


   Cell Dynamics Parameters (from STDIN)
   -------------------------------------
   internal stress tensor calculated
   Starting cell generated from CELLDM
   Cell parameters will be re-read from restart file
   Constant VOLUME Molecular dynamics
   cell parameters are not allowed to move

   Verbosity: iverbosity =  1



   Simulation dimensions initialization
   ------------------------------------

   unit vectors of full simulation cell
   in real space:                         in reciprocal space (units 2pi/alat):
   1    12.0000    0.0000    0.0000              1.0000    0.0000    0.0000
   2     0.0000   12.0000    0.0000              0.0000    1.0000    0.0000
   3     0.0000    0.0000   12.0000              0.0000    0.0000    1.0000
 
     Parallelization info
     --------------------
     sticks:   dense  smooth     PW     G-vecs:    dense   smooth      PW
     Min         455     455    112                14719    14719    1811
     Max         458     458    116                14726    14726    1814
     Sum        1829    1829    457                58893    58893    7249
 
 
   Real Mesh
   ---------
   Global Dimensions   Local  Dimensions   Processor Grid
   .X.   .Y.   .Z.     .X.   .Y.   .Z.     .X.   .Y.   .Z.
    50    50    50      50    50    13       1     1     4
   Array leading dimensions ( nr1x, nr2x, nr3x )   =     50    50    50
   Local number of cell to store the grid ( nrxx ) =      32500
   Number of x-y planes for each processors: 
  |  50,  13  |  50,  13  |  50,  12  |  50,  12  |
 
   Smooth Real Mesh
   ----------------
   Global Dimensions   Local  Dimensions   Processor Grid
   .X.   .Y.   .Z.     .X.   .Y.   .Z.     .X.   .Y.   .Z.
    50    50    50      50    50    13       1     1     4
   Array leading dimensions ( nr1x, nr2x, nr3x )   =     50    50    50
   Local number of cell to store the grid ( nrxx ) =      32500
   Number of x-y planes for each processors: 
  |  50,  13  |  50,  13  |  50,  12  |  50,  12  |
 
   Reciprocal Space Mesh
   ---------------------
   Large Mesh
     Global(ngm_g)    MinLocal       MaxLocal      Average
          29447           7360           7363        7361.75
   Smooth Mesh
     Global(ngms_g)   MinLocal       MaxLocal      Average
          29447           7360           7363        7361.75
   Wave function Mesh
     Global(ngw_g)    MinLocal       MaxLocal      Average
           3625            906            907         906.25


   System geometry initialization
   ------------------------------
   cell parameters read from restart file
   ibrav =   14       cell parameters 


   cell at current step : h(t)
      12.00000       0.00000       0.00000
       0.00000      12.00000       0.00000
       0.00000       0.00000      12.00000

   cell at previous step : h(t-dt)
      12.00000       0.00000       0.00000
       0.00000      12.00000       0.00000
       0.00000       0.00000      12.00000
 

   Matrix Multiplication Performances
   ortho mmul, time for parallel driver      =   0.00001 with    1 procs

   Constraints matrixes will be distributed block like on
   ortho sub-group =    1*   1 procs



   Pseudopotentials initialization
   -------------------------------


   Common initialization

   Specie:     1
   1  indv=  1   ang. mom=  0
 
                        dion 
   0.2253

   Specie:     2
 
                        dion 

   ----------------------------------------------------
   Exact Exchange Using Wannier Function Initialization
   ----------------------------------------------------

   Parallelization info :
     electronic states            4
     MPI tasks                    4
     Taskgroups                   1

   parameters used in exact exchange calculation
     radius to compute pairs:   6.0 A.U.   maximum number of neighbors:   60

   parameters used to solve Poisson equation
     radius for self potential:   5.0 A.U.   radius for pair potential:   5.0 A.U.
     Poisson solver discretized using   7   points in each dimension

   parameters used for multipole expansion
     radius for self potential:   6.0 A.U.   radius for pair potential:   6.0 A.U.
     maximum angular momentum:   6

   number of grid points in Poisson spehere 
     self potential:   37993   pair potential:   37993

   number of grid points in multipole expansion spehere: 
     self potential:   65204   pair potential:   65204

   ----------------------------------------------------
 ------------------------DYNAMICS IN THE WANNIER BASIS--------------------------
                              DYNAMICS PARAMETERS 
 FICTITIOUS MASS PARAMETER USED FOR SPREAD OPTIMIZATION            =   500.0
 TIME STEP USED FOR DAMPED DYNAMICS                                =  4.0000000
 DAMPING COEFFICIENT USED FOR WANNIER FUNCTION SPREAD OPTIMIZATION =  0.3000000
          20 STEPS OF DAMPED MOLECULAR DYNAMICS FOR OPTIMIZATION OF THE SPREAD
 AVERAGE WANNIER FUNCTION SPREAD WRITTEN TO     FORT.24
 INDIVIDUAL WANNIER FUNCTION SPREAD WRITTEN TO  ./h2o.spr
 WANNIER CENTERS WRITTEN TO                     ./h2o.wfc
 SOME PERTINENT RUN-TIME INFORMATION WRITTEN TO FORT.27
 -------------------------------------------------------------------------------
 
 wannier_startup IBRAV SELECTED:          14
 WANNIER SETUP : check G vectors and weights
inw = 1:   1   0   0   1.000000
inw = 2:   0   1   0   1.000000
inw = 3:   0   0   1   1.000000
inw = 4:   1   1   0   0.000000
inw = 5:   0   1   1   0.000000
inw = 6:   1   0   1   0.000000
 Translations to be done           6
 ibrav selected:          14
 Translation           1 for        3625 G vectors
 Translation           2 for        3625 G vectors
 Translation           3 for         907 G vectors
 Translation           4 for        3625 G vectors
 Translation           5 for        3625 G vectors
 Translation           6 for        3625 G vectors
 

   Cell parameters from input file are used in electron mass preconditioning
   init_tpiba2=    0.27415568
 
   Short Legend and Physical Units in the Output
   ---------------------------------------------
   NFI    [int]          - step index
   EKINC  [HARTREE A.U.] - kinetic energy of the fictitious electronic dynamics
   TEMPH  [K]            - Temperature of the fictitious cell dynamics
   TEMP   [K]            - Ionic temperature
   ETOT   [HARTREE A.U.] - Scf total energy (Kohn-Sham hamiltonian)
   ENTHAL [HARTREE A.U.] - Enthalpy ( ETOT + P * V )
   ECONS  [HARTREE A.U.] - Enthalpy + kinetic energy of ions and cell
   ECONT  [HARTREE A.U.] - Constant of motion for the CP lagrangian
 


   Randomization of SCALED ionic coordinates
   Species   2 atoms =    2
        Old Positions               New Positions
     0.152708 -0.018692 -0.000008    0.145814 -0.026230  0.008111
    -0.018692  0.152708  0.000017   -0.015180  0.151227 -0.004431

   formf: eself=    18.94976
   formf:     vps(g=0)=  -0.0061912     rhops(g=0)=  -0.0033232
   formf:     vps(g=0)=  -0.0060616     rhops(g=0)=  -0.0031806
   formf:     vps(g=0)=  -0.0060616     rhops(g=0)=  -0.0031806
   formf:     vps(g=0)=  -0.0060616     rhops(g=0)=  -0.0031806
   formf:     vps(g=0)=  -0.0059353     rhops(g=0)=  -0.0030441
   formf: sum_g vps(g)=  -4.3236990 sum_g rhops(g)=  -1.0540044
   formf:     vps(g=0)=  -0.0011639     rhops(g=0)=  -0.0005539
   formf:     vps(g=0)=  -0.0011390     rhops(g=0)=  -0.0005301
   formf:     vps(g=0)=  -0.0011390     rhops(g=0)=  -0.0005301
   formf:     vps(g=0)=  -0.0011390     rhops(g=0)=  -0.0005301
   formf:     vps(g=0)=  -0.0011148     rhops(g=0)=  -0.0005073
   formf: sum_g vps(g)=  -2.3789481 sum_g rhops(g)=  -0.1756674
   Delta V(G=0):   0.009308Ry,    0.253295eV
   nj_max nj_min nj_avg :     2     0  1.50
 
  nfi     ekinc              temph  tempp          exx               etot               enthal               econs                econt            vnhh    xnhh0   vnhp    xnhp0
    121    0.000640874439608    0.0    0.00      -0.776008300499     -16.973309003101     -16.973309003101     -16.973309003101     -16.972668128661   0.0000   0.0000   0.0000   0.0000
   MLWF step   20  Convergence =  1.876E-06  Not Generated
   nj_max nj_min nj_avg :     2     1  1.50
    122    0.002215473274811    0.0    0.00      -0.776600871670     -16.976143994976     -16.976143994976     -16.976143994976     -16.973928521702   0.0000   0.0000   0.0000   0.0000
   MLWF step   20  Convergence =  5.308E-06  Not Generated
   nj_max nj_min nj_avg :     2     1  1.50
    123    0.003827083076885    0.0    0.00      -0.777562546751     -16.979918657978     -16.979918657978     -16.979918657978     -16.976091574901   0.0000   0.0000   0.0000   0.0000
   MLWF step   20  Convergence =  7.401E-06  Not Generated
   nj_max nj_min nj_avg :     2     1  1.50
    124    0.004770343713896    0.0    0.00      -0.778612926045     -16.983181794484     -16.983181794484     -16.983181794484     -16.978411450770   0.0000   0.0000   0.0000   0.0000
   MLWF step   20  Convergence =  7.264E-06  Not Generated
   nj_max nj_min nj_avg :     2     1  1.50
    125    0.004996232691990    0.0    0.00      -0.779578046495     -16.985362128704     -16.985362128704     -16.985362128704     -16.980365896012   0.0000   0.0000   0.0000   0.0000
   MLWF step   20  Convergence =  5.224E-06  Not Generated
   nj_max nj_min nj_avg :     2     1  1.50
    126    0.004642273619868    0.0    0.00      -0.780355508124     -16.986513171434     -16.986513171434     -16.986513171434     -16.981870897814   0.0000   0.0000   0.0000   0.0000
   MLWF step   20  Convergence =  2.237E-06  Not Generated
   nj_max nj_min nj_avg :     2     1  1.50
    127    0.003904731442911    0.0    0.00      -0.780904938825     -16.986966985710     -16.986966985710     -16.986966985710     -16.983062254267   0.0000   0.0000   0.0000   0.0000
   MLWF step    2  Convergence =  1.631E-07  Generated
   nj_max nj_min nj_avg :     2     1  1.50
    128    0.001929873918977    0.0    0.00      -0.781232402935     -16.987070851153     -16.987070851153     -16.987070851153     -16.985140977234   0.0000   0.0000   0.0000   0.0000
   MLWF step   20  Convergence =  2.222E-06  Not Generated
   nj_max nj_min nj_avg :     2     1  1.50
    129    0.001824429904067    0.0    0.00      -0.781371913743     -16.987064399853     -16.987064399853     -16.987064399853     -16.985239969949   0.0000   0.0000   0.0000   0.0000
   MLWF step   20  Convergence =  4.019E-06  Not Generated
   nj_max nj_min nj_avg :     2     1  1.50
    130    0.001513802524319    0.0    0.00      -0.781375343688     -16.987063728457     -16.987063728457     -16.987063728457     -16.985549925933   0.0000   0.0000   0.0000   0.0000
   MLWF step   20  Convergence =  4.884E-06  Not Generated
   nj_max nj_min nj_avg :     2     1  1.50
    131    0.001091655642694    0.0    0.00      -0.781295452508     -16.987098878611     -16.987098878611     -16.987098878611     -16.986007222968   0.0000   0.0000   0.0000   0.0000
   MLWF step   20  Convergence =  4.906E-06  Not Generated
   nj_max nj_min nj_avg :     2     1  1.50
    132    0.000701554666972    0.0    0.00      -0.781174922902     -16.987155776634     -16.987155776634     -16.987155776634     -16.986454221967   0.0000   0.0000   0.0000   0.0000
   MLWF step   20  Convergence =  4.361E-06  Not Generated
   nj_max nj_min nj_avg :     2     1  1.50
    133    0.000420038249352    0.0    0.00      -0.781053027308     -16.987219200872     -16.987219200872     -16.987219200872     -16.986799162623   0.0000   0.0000   0.0000   0.0000
   MLWF step   20  Convergence =  3.536E-06  Not Generated
   nj_max nj_min nj_avg :     2     1  1.50
    134    0.000248437507659    0.0    0.00      -0.780948681444     -16.987272012973     -16.987272012973     -16.987272012973     -16.987023575466   0.0000   0.0000   0.0000   0.0000
   MLWF step   20  Convergence =  2.646E-06  Not Generated
   nj_max nj_min nj_avg :     2     1  1.50
    135    0.000152674310074    0.0    0.00      -0.780872416407     -16.987308862460     -16.987308862460     -16.987308862460     -16.987156188150   0.0000   0.0000   0.0000   0.0000
   MLWF step   20  Convergence =  1.831E-06  Not Generated
   nj_max nj_min nj_avg :     2     1  1.50
    136    0.000098197438368    0.0    0.00      -0.780826048098     -16.987331222158     -16.987331222158     -16.987331222158     -16.987233024720   0.0000   0.0000   0.0000   0.0000
   MLWF step   20  Convergence =  1.160E-06  Not Generated
   nj_max nj_min nj_avg :     2     1  1.50
    137    0.000063700845402    0.0    0.00      -0.780805709497     -16.987343276785     -16.987343276785     -16.987343276785     -16.987279575940   0.0000   0.0000   0.0000   0.0000
   MLWF step    2  Convergence =  6.836E-07  Generated
   nj_max nj_min nj_avg :     2     1  1.50
    138    0.000033296185524    0.0    0.00      -0.780804563252     -16.987349450384     -16.987349450384     -16.987349450384     -16.987316154199   0.0000   0.0000   0.0000   0.0000
   MLWF step    2  Convergence =  3.841E-07  Generated
   nj_max nj_min nj_avg :     2     1  1.50
    139    0.000017550419498    0.0    0.00      -0.780815090346     -16.987352918069     -16.987352918069     -16.987352918069     -16.987335367650   0.0000   0.0000   0.0000   0.0000
   MLWF step    2  Convergence =  1.778E-07  Generated
   nj_max nj_min nj_avg :     2     1  1.50
    140    0.000009689556966    0.0    0.00      -0.780830599074     -16.987355364172     -16.987355364172     -16.987355364172     -16.987345674615   0.0000   0.0000   0.0000   0.0000
   MLWF step    2  Convergence =  4.356E-08  Generated
   nj_max nj_min nj_avg :     2     1  1.50
    141    0.000005917004357    0.0    0.00      -0.780848501383     -16.987359949563     -16.987359949563     -16.987359949563     -16.987354032559   0.0000   0.0000   0.0000   0.0000
   MLWF step    2  Convergence =  3.167E-08  Generated
   nj_max nj_min nj_avg :     2     1  1.50
    142    0.000004106252623    0.0    0.00      -0.780860850703     -16.987361999457     -16.987361999457     -16.987361999457     -16.987357893204   0.0000   0.0000   0.0000   0.0000
   MLWF step    2  Convergence =  5.827E-08  Generated
   nj_max nj_min nj_avg :     2     1  1.50
    143    0.000003136863889    0.0    0.00      -0.780868655262     -16.987363851583     -16.987363851583     -16.987363851583     -16.987360714719   0.0000   0.0000   0.0000   0.0000
   MLWF step    2  Convergence =  4.667E-08  Generated
   nj_max nj_min nj_avg :     2     1  1.50
    144    0.000002488166610    0.0    0.00      -0.780871823257     -16.987365333968     -16.987365333968     -16.987365333968     -16.987362845801   0.0000   0.0000   0.0000   0.0000
   MLWF step    2  Convergence =  7.646E-09  Generated
   nj_max nj_min nj_avg :     2     1  1.50
    145    0.000001966181857    0.0    0.00      -0.780871164488     -16.987366479135     -16.987366479135     -16.987366479135     -16.987364512953   0.0000   0.0000   0.0000   0.0000
   MLWF step    2  Convergence =  4.829E-08  Generated
   nj_max nj_min nj_avg :     2     1  1.50
    146    0.000001526018734    0.0    0.00      -0.780867885979     -16.987367298754     -16.987367298754     -16.987367298754     -16.987365772735   0.0000   0.0000   0.0000   0.0000
   MLWF step    2  Convergence =  1.117E-07  Generated
   nj_max nj_min nj_avg :     2     1  1.50
    147    0.000001170585183    0.0    0.00      -0.780863240513     -16.987367878825     -16.987367878825     -16.987367878825     -16.987366708240   0.0000   0.0000   0.0000   0.0000
   MLWF step    2  Convergence =  1.750E-07  Generated
   nj_max nj_min nj_avg :     2     1  1.50
    148    0.000000904124191    0.0    0.00      -0.780858308685     -16.987368309021     -16.987368309021     -16.987368309021     -16.987367404897   0.0000   0.0000   0.0000   0.0000

   MAIN:          EKINC   (thr)          DETOT   (thr)       MAXFORCE   (thr)
   MAIN:   0.904124D-06  0.1D-05  0.430196D-06  0.1D-03  0.000000D+00  0.1D+11
   MAIN: convergence achieved for system relaxation
   MLWF step    2  Convergence =  2.326E-07  Generated

 * Physical Quantities at step:   149
   nj_max nj_min nj_avg :     2     1  1.50
     Pressure of Nuclei (GPa)             0.00000    149
     Pressure Total (GPa)            -8.16753    149


                total energy =      -16.98736864417 Hartree a.u.
              kinetic energy =       11.96070 Hartree a.u.
        electrostatic energy =      -18.06688 Hartree a.u.
                         esr =        0.16727 Hartree a.u.
                       eself =       18.94976 Hartree a.u.
      pseudopotential energy =       -8.72991 Hartree a.u.
  n-l pseudopotential energy =        2.04228 Hartree a.u.
 exchange-correlation energy =       -3.41270 Hartree a.u.
           average potential =        0.00000 Hartree a.u.




                  exx energy =       -0.78085 Hartree a.u.
       total energy with exx =      -16.98737 Hartree a.u.


   Eigenvalues (eV), kp =   1 , spin =  1

  -28.48  -14.52  -10.46   -8.29
 
 
   CELL_PARAMETERS
   12.00000000    0.00000000    0.00000000
    0.00000000   12.00000000    0.00000000
    0.00000000    0.00000000   12.00000000

   System Density [g/cm^3] :              0.1167302083


   System Volume [A.U.^3] :           1728.0000000000


   Center of mass square displacement (a.u.):   0.000000

   Total stress (GPa)
       -7.08714085        -0.49485056         0.14434781
       -0.49485056        -7.73177141        -0.07004297
        0.14434781        -0.07004297        -9.68367070
   ATOMIC_POSITIONS
   O       0.99000000000000E-02     0.99000000000000E-02     0.00000000000000E+00
   H       0.17497638212944E+01    -0.31476531984178E+00     0.97326700745772E-01
   H      -0.18216408038938E+00     0.18147184097191E+01    -0.53170260144953E-01
 
   ATOMIC_VELOCITIES
   O       0.00000000000000E+00     0.00000000000000E+00     0.00000000000000E+00
   H       0.00000000000000E+00     0.00000000000000E+00     0.00000000000000E+00
   H       0.00000000000000E+00     0.00000000000000E+00     0.00000000000000E+00
 
   Forces acting on atoms (au):
   O      -0.52399612246947E-01    -0.15291013855404E-01    -0.23474643414873E-02
   H       0.50774782736590E-01    -0.44984522885522E-02     0.27969164609952E-02
   H       0.25620742010684E-02     0.20282706895026E-01    -0.35270145623013E-03
 


   Partial temperatures (for each ionic specie) 
   Species  Temp (K)   Mean Square Displacement (a.u.)
        1   0.00E+00     0.0000E+00
        2   0.00E+00     0.0000E+00
    149    0.000000718867037    0.0    0.00      -0.780853878364     -16.987368644167     -16.987368644167     -16.987368644167     -16.987367925300   0.0000   0.0000   0.0000   0.0000

   MAIN:          EKINC   (thr)          DETOT   (thr)       MAXFORCE   (thr)
   MAIN:   0.718867D-06  0.1D-05  0.335146D-06  0.1D-03  0.000000D+00  0.1D+11
   MAIN: convergence achieved for system relaxation
   MLWF step    2  Convergence =  2.811E-07  Generated

   writing restart file (with schema): ./h2o_51.save/
     restart      :      0.00s CPU      0.01s WALL (       1 calls)


   Averaged Physical Quantities
                      accumulated      this run
   ekinc         :        0.42386       0.00114 (AU)
   ekin          :       10.92252      11.94851 (AU)
   epot          :      -28.32616     -30.20098 (AU)
   total energy  :      -15.37299     -16.98592 (AU)
   temperature   :        0.00000       0.00000 (K )
   enthalpy      :      -15.37299     -16.98592 (AU)
   econs         :      -15.37299     -16.98592 (AU)
   pressure      :       -1.48160      -8.17405 (Gpa)
   volume        :     1728.00000    1728.00000 (AU)



     Called by MAIN_LOOP:
     initialize   :      0.08s CPU      0.09s WALL (       1 calls)
     main_loop    :      4.93s CPU      5.26s WALL (      29 calls)
     cpr_total    :      4.96s CPU      5.31s WALL (       1 calls)

     Called by INIT_RUN:
     init_readfil :      0.01s CPU      0.01s WALL (       1 calls)

     Called by CPR:
     cpr_md       :      4.96s CPU      5.31s WALL (      29 calls)
     move_electro :      4.92s CPU      5.25s WALL (      29 calls)
     wf_close_opt :      0.03s CPU      0.03s WALL (      29 calls)

     Called by WANNIER_MODULES:
     wf_init      :      0.02s CPU      0.02s WALL (       1 calls)
     wf_close_opt :      0.03s CPU      0.03s WALL (      29 calls)
     wf_1         :      0.01s CPU      0.01s WALL (      29 calls)
     wf_2         :      0.02s CPU      0.02s WALL (      29 calls)

     Called by EXACT_EXCHANGE:
     exact_exchan :      4.51s CPU      4.76s WALL (      29 calls)
     getpairv     :      2.84s CPU      2.95s WALL (      29 calls)
     exx_gs_setup :      0.01s CPU      0.01s WALL (      29 calls)
     exx_pairs    :      0.00s CPU      0.00s WALL (      29 calls)
     r_orbital    :      0.03s CPU      0.07s WALL (      29 calls)
     totalenergy  :      0.21s CPU      0.21s WALL (      29 calls)
     vl2vg        :      0.02s CPU      0.03s WALL (      29 calls)
     send_psi     :      0.01s CPU      0.01s WALL (      29 calls)
     send_psi_wai :      0.00s CPU      0.01s WALL (      29 calls)
     getvofr      :      4.03s CPU      4.14s WALL (      87 calls)
     getvofr_qlm  :      0.18s CPU      0.19s WALL (      87 calls)
     getvofr_boun :      0.14s CPU      0.15s WALL (      87 calls)
     getvofr_gete :      0.04s CPU      0.04s WALL (      87 calls)
     getvofr_hpot :      3.63s CPU      3.73s WALL (      87 calls)
     exx_cell_der :      0.05s CPU      0.05s WALL (     116 calls)

     Called by move_electrons:
     rhoofr       :      0.06s CPU      0.06s WALL (      29 calls)
     vofrho       :      0.31s CPU      0.38s WALL (      29 calls)
     dforce       :      0.04s CPU      0.04s WALL (      58 calls)
     calphi       :      0.00s CPU      0.00s WALL (      29 calls)
     nlfl         :      0.00s CPU      0.00s WALL (      29 calls)

     Called by ortho:
     ortho_iter   :      0.00s CPU      0.00s WALL (      29 calls)
     rsg          :      0.00s CPU      0.00s WALL (      29 calls)
     rhoset       :      0.00s CPU      0.00s WALL (      29 calls)
     sigset       :      0.00s CPU      0.00s WALL (      29 calls)
     tauset       :      0.00s CPU      0.00s WALL (      29 calls)
     ortho        :      0.00s CPU      0.00s WALL (      29 calls)
     updatc       :      0.00s CPU      0.00s WALL (      29 calls)

     Small boxes:

     Low-level routines:
     prefor       :      0.00s CPU      0.00s WALL (      30 calls)
     nlfq         :      0.00s CPU      0.00s WALL (      29 calls)
     nlsm1        :      0.00s CPU      0.00s WALL (      30 calls)
     nlsm2        :      0.00s CPU      0.00s WALL (      29 calls)
     fft          :      0.09s CPU      0.11s WALL (     233 calls)
     ffts         :      0.02s CPU      0.02s WALL (      58 calls)
     fftw         :      0.05s CPU      0.07s WALL (     232 calls)
     fft_scatt_xy :      0.03s CPU      0.03s WALL (     523 calls)
     fft_scatt_yz :      0.05s CPU      0.06s WALL (     523 calls)
     fft_scatt_tg :      0.00s CPU      0.00s WALL (     174 calls)
     betagx       :      0.01s CPU      0.01s WALL (       1 calls)
     qradx        :      0.00s CPU      0.00s WALL (       1 calls)
     nlinit       :      0.03s CPU      0.03s WALL (       1 calls)
     init_dim     :      0.00s CPU      0.01s WALL (       1 calls)
     newnlinit    :      0.00s CPU      0.00s WALL (       1 calls)
     from_restart :      0.00s CPU      0.00s WALL (       1 calls)
     strucf       :      0.00s CPU      0.00s WALL (       1 calls)
     calbec       :      0.00s CPU      0.00s WALL (      30 calls)
 
 
     CP           :      5.06s CPU      5.43s WALL

 
   This run was terminated on:  16:34:15  31Oct2020            

=------------------------------------------------------------------------------=
   JOB DONE.
=------------------------------------------------------------------------------=
