
     Program POST-PROC v.3.1.1  starts ...
     Today is 29Jun2006 at  2:59:27 

     nbndx  =     7  nbnd   =     7  natomwfc =    18  npwx   =     212
     nelec  =   6.00  nkb   =     8  ngl    =     155
 
===== INPUT FILE containing the left lead =====

     GEOMETRY:

     lattice parameter (a_0)   =       5.3000  a.u.
     the volume                =     210.5121 (a.u.)^3
     the cross section         =      28.0900 (a.u.)^2
     l of the unit cell        =       1.4140 (a_0)
     number of atoms/cell      =            2
     number of atomic types    =            1

     crystal axes: (cart. coord. in units of a_0)
               a(1) = (  1.0000  0.0000  0.0000 )  
               a(2) = (  0.0000  1.0000  0.0000 )  
               a(3) = (  0.0000  0.0000  1.4140 )  


   Cartesian axes

     site n.     atom                  positions (a_0 units)
          1           Al  tau(  1)=(  0.0000  0.0000  1.4140  )
          2           Al  tau(  2)=(  0.5000  0.5000  0.7070  )

     nr1s                      =           15
     nr2s                      =           15
     nr3s                      =           20
     nrx1s                     =           15
     nrx2s                     =           15
     nrx3s                     =           20
     nr1                       =           15
     nr2                       =           15
     nr3                       =           20
     nrx1                      =           15
     nrx2                      =           15
     nrx3                      =           20

 _______________________________
  Radii of nonlocal spheres: 

     type       ibeta     ang. mom.          radius (a_0 units)
          Al      1         0                    0.5116
          Al      2         1                    0.5798
----- General information -----
 
----- Complex band structure calculation -----

     nrx                       =           15
     nry                       =           15
     nz1                       =           11


     energy0               =         1.0E+01
     denergy               =        -4.0E-01
     nenergy               =         60
     ecut2d                =         1.5E+01
     ewind                 =         1.0E+00
     epsproj               =         1.0E-03


     number of k_|| points=    1
                       cart. coord. in units 2pi/a_0
        k(    1) = (   0.0000000   0.0000000), wk =   1.0000000
----- Information about left lead ----- 

     nocros                   =            4
     noins                    =            4
     norb                     =           12
     norbf                    =           12
     nrz                      =           21

      iorb      type   ibeta   ang. mom.   m       position (a_0)
        1        1       1        0        1   taunew(   1)=(  0.0000  0.0000  0.0000)
        2        1       2        1        1   taunew(   2)=(  0.0000  0.0000  0.0000)
        3        1       2        1        2   taunew(   3)=(  0.0000  0.0000  0.0000)
        4        1       2        1        3   taunew(   4)=(  0.0000  0.0000  0.0000)
        5        1       1        0        1   taunew(   5)=(  0.5000  0.5000  0.7070)
        6        1       2        1        1   taunew(   6)=(  0.5000  0.5000  0.7070)
        7        1       2        1        2   taunew(   7)=(  0.5000  0.5000  0.7070)
        8        1       2        1        3   taunew(   8)=(  0.5000  0.5000  0.7070)
        9        1       1        0        1   taunew(   9)=(  0.0000  0.0000  1.4140)
       10        1       2        1        1   taunew(  10)=(  0.0000  0.0000  1.4140)
       11        1       2        1        2   taunew(  11)=(  0.0000  0.0000  1.4140)
       12        1       2        1        3   taunew(  12)=(  0.0000  0.0000  1.4140)
    k slab    z(k)  z(k+1)     crossing(iorb=1,norb)
    1   0.0000 0.0673 0.0673   111100000000
    2   0.0673 0.1347 0.0673   111101110000
    3   0.1347 0.2020 0.0673   111111110000
    4   0.2020 0.2693 0.0673   111111110000
    5   0.2693 0.3367 0.0673   111111110000
    6   0.3367 0.4040 0.0673   111111110000
    7   0.4040 0.4713 0.0673   111111110000
    8   0.4713 0.5387 0.0673   111111110000
    9   0.5387 0.6060 0.0673   011111110000
   10   0.6060 0.6733 0.0673   000011110000
   11   0.6733 0.7407 0.0673   000011110000
   12   0.7407 0.8080 0.0673   000011110000
   13   0.8080 0.8753 0.0673   000011110111
   14   0.8753 0.9427 0.0673   000011111111
   15   0.9427 1.0100 0.0673   000011111111
   16   1.0100 1.0773 0.0673   000011111111
   17   1.0773 1.1447 0.0673   000011111111
   18   1.1447 1.2120 0.0673   000011111111
   19   1.2120 1.2793 0.0673   000011111111
   20   1.2793 1.3467 0.0673   000001111111
   21   1.3467 1.4140 0.0673   000000001111

        k(    1) = (   0.0000000   0.0000000), wk =   1.0000000

 ngper, shell number =           37           8
 ngper, n2d =           37          25
 Nchannels of the left tip =            5
        k1(2pi/a)    k2(2pi/a)       E-Ef (eV)
 
  -0.2448848   0.0000000  10.0000000
  -0.2448848   0.0000000  10.0000000
  -0.2591401   0.0000000  10.0000000
   0.3045507   0.0000000  10.0000000
  -0.4299748   0.0000000  10.0000000
 Nchannels of the left tip =            5
        k1(2pi/a)    k2(2pi/a)       E-Ef (eV)
 
   0.2068377   0.0000000   9.6000000
  -0.2801997   0.0000000   9.6000000
  -0.2801997   0.0000000   9.6000000
  -0.2908138   0.0000000   9.6000000
  -0.4455701   0.0000000   9.6000000
 Nchannels of the left tip =            4
        k1(2pi/a)    k2(2pi/a)       E-Ef (eV)
 
  -0.3172308   0.0000000   9.2000000
  -0.3172308   0.0000000   9.2000000
  -0.3234987   0.0000000   9.2000000
  -0.4612830   0.0000000   9.2000000
 Nchannels of the left tip =            4
        k1(2pi/a)    k2(2pi/a)       E-Ef (eV)
 
  -0.3563232   0.0000000   8.8000000
  -0.3563255   0.0000000   8.8000000
  -0.3574649   0.0000000   8.8000000
  -0.4771198   0.0000000   8.8000000
 Nchannels of the left tip =            4
        k1(2pi/a)    k2(2pi/a)       E-Ef (eV)
 
  -0.3930135   0.0000000   8.4000000
  -0.3979228   0.0000000   8.4000000
  -0.3979254   0.0000000   8.4000000
  -0.4930864   0.0000000   8.4000000
 Nchannels of the left tip =            4
        k1(2pi/a)    k2(2pi/a)       E-Ef (eV)
 
  -0.4305078   0.0000000   8.0000000
  -0.4426214   0.0000000   8.0000000
  -0.4426243   0.0000000   8.0000000
   0.4908113   0.0000000   8.0000000
 Nchannels of the left tip =            4
        k1(2pi/a)    k2(2pi/a)       E-Ef (eV)
 
  -0.4704145   0.0000000   7.6000000
   0.4745676   0.0000000   7.6000000
  -0.4912672   0.0000000   7.6000000
  -0.4912704   0.0000000   7.6000000
 Nchannels of the left tip =            4
        k1(2pi/a)    k2(2pi/a)       E-Ef (eV)
 
   0.4548563   0.0000000   7.2000000
   0.4548599   0.0000000   7.2000000
   0.4581764   0.0000000   7.2000000
   0.4866304   0.0000000   7.2000000
 Nchannels of the left tip =            4
        k1(2pi/a)    k2(2pi/a)       E-Ef (eV)
 
   0.3935712   0.0000000   6.8000000
   0.3935712   0.0000000   6.8000000
   0.4396925   0.0000000   6.8000000
   0.4416316   0.0000000   6.8000000
 Nchannels of the left tip =            4
        k1(2pi/a)    k2(2pi/a)       E-Ef (eV)
 
   0.3206304   0.0000000   6.4000000
   0.3206358   0.0000000   6.4000000
   0.3872952   0.0000000   6.4000000
   0.4249271   0.0000000   6.4000000
 Nchannels of the left tip =            4
        k1(2pi/a)    k2(2pi/a)       E-Ef (eV)
 
   0.2249287   0.0000000   6.0000000
   0.2249366   0.0000000   6.0000000
   0.3267897   0.0000000   6.0000000
   0.4080562   0.0000000   6.0000000
 Nchannels of the left tip =            2
        k1(2pi/a)    k2(2pi/a)       E-Ef (eV)
 
   0.2523767   0.0000000   5.6000000
   0.3910121   0.0000000   5.6000000
 Nchannels of the left tip =            2
        k1(2pi/a)    k2(2pi/a)       E-Ef (eV)
 
   0.1438429   0.0000000   5.2000000
   0.3737875   0.0000000   5.2000000
 Nchannels of the left tip =            1
        k1(2pi/a)    k2(2pi/a)       E-Ef (eV)
 
   0.3563747   0.0000000   4.8000000
 Nchannels of the left tip =            1
        k1(2pi/a)    k2(2pi/a)       E-Ef (eV)
 
   0.3387652   0.0000000   4.4000000
 Nchannels of the left tip =            1
        k1(2pi/a)    k2(2pi/a)       E-Ef (eV)
 
   0.3209499   0.0000000   4.0000000
 Nchannels of the left tip =            1
        k1(2pi/a)    k2(2pi/a)       E-Ef (eV)
 
   0.3029187   0.0000000   3.6000000
 Nchannels of the left tip =            1
        k1(2pi/a)    k2(2pi/a)       E-Ef (eV)
 
   0.2846606   0.0000000   3.2000000
 Nchannels of the left tip =            1
        k1(2pi/a)    k2(2pi/a)       E-Ef (eV)
 
   0.2661628   0.0000000   2.8000000
 Nchannels of the left tip =            1
        k1(2pi/a)    k2(2pi/a)       E-Ef (eV)
 
   0.2474108   0.0000000   2.4000000
 Nchannels of the left tip =            1
        k1(2pi/a)    k2(2pi/a)       E-Ef (eV)
 
   0.2283874   0.0000000   2.0000000
 Nchannels of the left tip =            1
        k1(2pi/a)    k2(2pi/a)       E-Ef (eV)
 
   0.2090717   0.0000000   1.6000000
 Nchannels of the left tip =            1
        k1(2pi/a)    k2(2pi/a)       E-Ef (eV)
 
   0.1894371   0.0000000   1.2000000
 Nchannels of the left tip =            1
        k1(2pi/a)    k2(2pi/a)       E-Ef (eV)
 
   0.1694487   0.0000000   0.8000000
 Nchannels of the left tip =            1
        k1(2pi/a)    k2(2pi/a)       E-Ef (eV)
 
   0.1490568   0.0000000   0.4000000
 Nchannels of the left tip =            1
        k1(2pi/a)    k2(2pi/a)       E-Ef (eV)
 
   0.1281857   0.0000000   0.0000000
 Nchannels of the left tip =            1
        k1(2pi/a)    k2(2pi/a)       E-Ef (eV)
 
   0.1067060   0.0000000  -0.4000000
 Nchannels of the left tip =            1
        k1(2pi/a)    k2(2pi/a)       E-Ef (eV)
 
   0.0843619   0.0000000  -0.8000000
 Nchannels of the left tip =            1
        k1(2pi/a)    k2(2pi/a)       E-Ef (eV)
 
   0.0605165   0.0000000  -1.2000000
 Nchannels of the left tip =            1
        k1(2pi/a)    k2(2pi/a)       E-Ef (eV)
 
   0.0326202   0.0000000  -1.6000000
 Nchannels of the left tip =            0
        k1(2pi/a)    k2(2pi/a)       E-Ef (eV)
 
 Nchannels of the left tip =            0
        k1(2pi/a)    k2(2pi/a)       E-Ef (eV)
 
 Nchannels of the left tip =            0
        k1(2pi/a)    k2(2pi/a)       E-Ef (eV)
 
 Nchannels of the left tip =            1
        k1(2pi/a)    k2(2pi/a)       E-Ef (eV)
 
  -0.0152869   0.0000000  -3.2000000
 Nchannels of the left tip =            1
        k1(2pi/a)    k2(2pi/a)       E-Ef (eV)
 
  -0.0521112   0.0000000  -3.6000000
 Nchannels of the left tip =            1
        k1(2pi/a)    k2(2pi/a)       E-Ef (eV)
 
  -0.0801137   0.0000000  -4.0000000
 Nchannels of the left tip =            1
        k1(2pi/a)    k2(2pi/a)       E-Ef (eV)
 
  -0.1069134   0.0000000  -4.4000000
 Nchannels of the left tip =            1
        k1(2pi/a)    k2(2pi/a)       E-Ef (eV)
 
  -0.1336176   0.0000000  -4.8000000
 Nchannels of the left tip =            1
        k1(2pi/a)    k2(2pi/a)       E-Ef (eV)
 
  -0.1606359   0.0000000  -5.2000000
 Nchannels of the left tip =            1
        k1(2pi/a)    k2(2pi/a)       E-Ef (eV)
 
  -0.1881900   0.0000000  -5.6000000
 Nchannels of the left tip =            1
        k1(2pi/a)    k2(2pi/a)       E-Ef (eV)
 
  -0.2164378   0.0000000  -6.0000000
 Nchannels of the left tip =            1
        k1(2pi/a)    k2(2pi/a)       E-Ef (eV)
 
  -0.2455166   0.0000000  -6.4000000
 Nchannels of the left tip =            1
        k1(2pi/a)    k2(2pi/a)       E-Ef (eV)
 
  -0.2755643   0.0000000  -6.8000000
 Nchannels of the left tip =            1
        k1(2pi/a)    k2(2pi/a)       E-Ef (eV)
 
  -0.3067321   0.0000000  -7.2000000
 Nchannels of the left tip =            1
        k1(2pi/a)    k2(2pi/a)       E-Ef (eV)
 
  -0.3391962   0.0000000  -7.6000000
 Nchannels of the left tip =            1
        k1(2pi/a)    k2(2pi/a)       E-Ef (eV)
 
  -0.3731706   0.0000000  -8.0000000
 Nchannels of the left tip =            1
        k1(2pi/a)    k2(2pi/a)       E-Ef (eV)
 
  -0.4089254   0.0000000  -8.4000000
 Nchannels of the left tip =            1
        k1(2pi/a)    k2(2pi/a)       E-Ef (eV)
 
  -0.4468130   0.0000000  -8.8000000
 Nchannels of the left tip =            1
        k1(2pi/a)    k2(2pi/a)       E-Ef (eV)
 
  -0.4873116   0.0000000  -9.2000000
 Nchannels of the left tip =            1
        k1(2pi/a)    k2(2pi/a)       E-Ef (eV)
 
   0.4688981   0.0000000  -9.6000000
 Nchannels of the left tip =            1
        k1(2pi/a)    k2(2pi/a)       E-Ef (eV)
 
   0.4207858   0.0000000 -10.0000000
 Nchannels of the left tip =            1
        k1(2pi/a)    k2(2pi/a)       E-Ef (eV)
 
   0.3666508   0.0000000 -10.4000000
 Nchannels of the left tip =            1
        k1(2pi/a)    k2(2pi/a)       E-Ef (eV)
 
   0.3032821   0.0000000 -10.8000000
 Nchannels of the left tip =            1
        k1(2pi/a)    k2(2pi/a)       E-Ef (eV)
 
   0.2229374   0.0000000 -11.2000000
 Nchannels of the left tip =            1
        k1(2pi/a)    k2(2pi/a)       E-Ef (eV)
 
   0.0871486   0.0000000 -11.6000000
 Nchannels of the left tip =            0
        k1(2pi/a)    k2(2pi/a)       E-Ef (eV)
 
 Nchannels of the left tip =            0
        k1(2pi/a)    k2(2pi/a)       E-Ef (eV)
 
 Nchannels of the left tip =            0
        k1(2pi/a)    k2(2pi/a)       E-Ef (eV)
 
 Nchannels of the left tip =            0
        k1(2pi/a)    k2(2pi/a)       E-Ef (eV)
 
 Nchannels of the left tip =            0
        k1(2pi/a)    k2(2pi/a)       E-Ef (eV)
 
 
     PWCOND       :     7.45s CPU time

     init         :     0.21s CPU
     poten        :     0.01s CPU
     local        :     0.05s CPU
 
     scatter_forw :     5.75s CPU (      60 calls,   0.096 s avg)
     integrals    :     3.31s CPU (      60 calls,   0.055 s avg)
     rotatef      :     0.62s CPU (    1200 calls,   0.001 s avg)
     rotateb      :     0.53s CPU (    1200 calls,   0.000 s avg)
     scatter_back :     0.96s CPU (      60 calls,   0.016 s avg)
 
     compbs       :     1.42s CPU (      60 calls,   0.024 s avg)
     compbs_2     :     1.31s CPU (      60 calls,   0.022 s avg)
 
