
     Program POST-PROC v.2.0    starts ...
     Today is  3Feb2004 at 15: 7: 8 

     nbndx  =    25  nbnd   =    14  natomwfc =    25  npwx   =    8247
     nelec  =   19.00 nkb   =    24  ngl    =    5582
         PWCOND calculation is now starting...

  T calculation with identical tips (ikind=1)

  left  boundary of the tip is       0.0000
  right boundary of the tip is       0.3750
  the end of the scatt. region is    2.2500

     GEOMETRY:

     lattice parameter (a_0)   =      12.0000  a.u.
     the volume                =    3888.0000 (a.u.)^3
     the cross section         =     144.0000 (a.u.)^2
     l of the unit cell        =       2.2500 (a_0)
     number of atoms/cell      =            7
     number of atomic types    =            2

     crystal axes: (cart. coord. in units of a_0)
               a(1) = (  1.0000  0.0000  0.0000 )  
               a(2) = (  0.0000  1.0000  0.0000 )  
               a(3) = (  0.0000  0.0000  2.2500 )  


   Cartesian axes

     site n.     atom                  positions (a_0 units)
         1           Al  tau( 1)=(  0.0000  0.0000  2.2500  )
         2           Al  tau( 2)=(  0.0000  0.0000  0.3750  )
         3           Al  tau( 3)=(  0.0000  0.0000  0.7500  )
         4           Al  tau( 4)=( -0.0278  0.0000  1.1304  )
         5           H   tau( 5)=(  0.1927  0.0000  1.3125  )
         6           Al  tau( 6)=( -0.0278  0.0000  1.4946  )
         7           Al  tau( 7)=(  0.0000  0.0000  1.8750  )

     nr1s                      =           40
     nr2s                      =           40
     nr3s                      =           90
     nrx1s                     =           40
     nrx2s                     =           40
     nrx3s                     =           90
     nr1                       =           48
     nr2                       =           48
     nr3                       =          108
     nrx1                      =           48
     nrx2                      =           48
     nrx3                      =          108
     nrx                       =           40
     nry                       =           40
     nrz                       =           91
     nz1                       =           11

 _______________________________
  Radii of nonlocal spheres: 

     type       ibeta     ang. mom.          radius (a_0 units)
          Al      1         0                    0.2260
          Al      2         1                    0.2561

     norb                      =           28
     norbf                     =           24
     nocrosl                   =            4
     noinsl                    =            0
     noinss                    =           16
     nocrosr                   =            4
     noinsr                    =            0

     iorb  type   ibeta   ang. mom.   m       position (a_0)
       1       Al   1        0        1   taunew(  1)=(  0.0000  0.0000  0.0000)
       2       Al   2        1        1   taunew(  2)=(  0.0000  0.0000  0.0000)
       3       Al   2        1        2   taunew(  3)=(  0.0000  0.0000  0.0000)
       4       Al   2        1        3   taunew(  4)=(  0.0000  0.0000  0.0000)
       5       Al   1        0        1   taunew(  5)=(  0.0000  0.0000  0.3750)
       6       Al   2        1        1   taunew(  6)=(  0.0000  0.0000  0.3750)
       7       Al   2        1        2   taunew(  7)=(  0.0000  0.0000  0.3750)
       8       Al   2        1        3   taunew(  8)=(  0.0000  0.0000  0.3750)
       9       Al   1        0        1   taunew(  9)=(  0.0000  0.0000  0.7500)
      10       Al   2        1        1   taunew( 10)=(  0.0000  0.0000  0.7500)
      11       Al   2        1        2   taunew( 11)=(  0.0000  0.0000  0.7500)
      12       Al   2        1        3   taunew( 12)=(  0.0000  0.0000  0.7500)
      13       Al   1        0        1   taunew( 13)=( -0.0278  0.0000  1.1304)
      14       Al   2        1        1   taunew( 14)=( -0.0278  0.0000  1.1304)
      15       Al   2        1        2   taunew( 15)=( -0.0278  0.0000  1.1304)
      16       Al   2        1        3   taunew( 16)=( -0.0278  0.0000  1.1304)
      17       Al   1        0        1   taunew( 17)=( -0.0278  0.0000  1.4946)
      18       Al   2        1        1   taunew( 18)=( -0.0278  0.0000  1.4946)
      19       Al   2        1        2   taunew( 19)=( -0.0278  0.0000  1.4946)
      20       Al   2        1        3   taunew( 20)=( -0.0278  0.0000  1.4946)
      21       Al   1        0        1   taunew( 21)=(  0.0000  0.0000  1.8750)
      22       Al   2        1        1   taunew( 22)=(  0.0000  0.0000  1.8750)
      23       Al   2        1        2   taunew( 23)=(  0.0000  0.0000  1.8750)
      24       Al   2        1        3   taunew( 24)=(  0.0000  0.0000  1.8750)
      25       Al   1        0        1   taunew( 25)=(  0.0000  0.0000  2.2500)
      26       Al   2        1        1   taunew( 26)=(  0.0000  0.0000  2.2500)
      27       Al   2        1        2   taunew( 27)=(  0.0000  0.0000  2.2500)
      28       Al   2        1        3   taunew( 28)=(  0.0000  0.0000  2.2500)

     energy0               =         3.0E+00
     denergy               =        -3.0E+00
     nenergy               =          3
     ecut2d                =         2.5E+01
     ewind                 =         1.0E+00
     epsproj               =         1.0E-03

    k slab    z(k)  z(k+1)     crossing(iorb=1,norb)
    1   0.0000 0.0250 0.0250   1111000000000000000000000000
    2   0.0250 0.0500 0.0250   1111000000000000000000000000
    3   0.0500 0.0750 0.0250   1111000000000000000000000000
    4   0.0750 0.1000 0.0250   1111000000000000000000000000
    5   0.1000 0.1250 0.0250   1111011100000000000000000000
    6   0.1250 0.1500 0.0250   1111111100000000000000000000
    7   0.1500 0.1750 0.0250   1111111100000000000000000000
    8   0.1750 0.2000 0.0250   1111111100000000000000000000
    9   0.2000 0.2250 0.0250   1111111100000000000000000000
   10   0.2250 0.2500 0.0250   1111111100000000000000000000
   11   0.2500 0.2750 0.0250   0111111100000000000000000000
   12   0.2750 0.3000 0.0250   0000111100000000000000000000
   13   0.3000 0.3250 0.0250   0000111100000000000000000000
   14   0.3250 0.3500 0.0250   0000111100000000000000000000
   15   0.3500 0.3750 0.0250   0000111100000000000000000000
   16   0.3750 0.3997 0.0247   0000111100000000000000000000
   17   0.3997 0.4243 0.0247   0000111100000000000000000000
   18   0.4243 0.4490 0.0247   0000111100000000000000000000
   19   0.4490 0.4737 0.0247   0000111100000000000000000000
   20   0.4737 0.4984 0.0247   0000111101110000000000000000
   21   0.4984 0.5230 0.0247   0000111101110000000000000000
   22   0.5230 0.5477 0.0247   0000111111110000000000000000
   23   0.5477 0.5724 0.0247   0000111111110000000000000000
   24   0.5724 0.5970 0.0247   0000111111110000000000000000
   25   0.5970 0.6217 0.0247   0000111111110000000000000000
   26   0.6217 0.6464 0.0247   0000011111110000000000000000
   27   0.6464 0.6711 0.0247   0000000011110000000000000000
   28   0.6711 0.6957 0.0247   0000000011110000000000000000
   29   0.6957 0.7204 0.0247   0000000011110000000000000000
   30   0.7204 0.7451 0.0247   0000000011110000000000000000
   31   0.7451 0.7697 0.0247   0000000011110000000000000000
   32   0.7697 0.7944 0.0247   0000000011110000000000000000
   33   0.7944 0.8191 0.0247   0000000011110000000000000000
   34   0.8191 0.8438 0.0247   0000000011110000000000000000
   35   0.8438 0.8684 0.0247   0000000011110000000000000000
   36   0.8684 0.8931 0.0247   0000000011110111000000000000
   37   0.8931 0.9178 0.0247   0000000011111111000000000000
   38   0.9178 0.9424 0.0247   0000000011111111000000000000
   39   0.9424 0.9671 0.0247   0000000011111111000000000000
   40   0.9671 0.9918 0.0247   0000000011111111000000000000
   41   0.9918 1.0164 0.0247   0000000001111111000000000000
   42   1.0164 1.0411 0.0247   0000000000001111000000000000
   43   1.0411 1.0658 0.0247   0000000000001111000000000000
   44   1.0658 1.0905 0.0247   0000000000001111000000000000
   45   1.0905 1.1151 0.0247   0000000000001111000000000000
   46   1.1151 1.1398 0.0247   0000000000001111000000000000
   47   1.1398 1.1645 0.0247   0000000000001111000000000000
   48   1.1645 1.1891 0.0247   0000000000001111000000000000
   49   1.1891 1.2138 0.0247   0000000000001111000000000000
   50   1.2138 1.2385 0.0247   0000000000001111000000000000
   51   1.2385 1.2632 0.0247   0000000000001111011100000000
   52   1.2632 1.2878 0.0247   0000000000001111111100000000
   53   1.2878 1.3125 0.0247   0000000000001111111100000000
   54   1.3125 1.3372 0.0247   0000000000001111111100000000
   55   1.3372 1.3618 0.0247   0000000000001111111100000000
   56   1.3618 1.3865 0.0247   0000000000000111111100000000
   57   1.3865 1.4112 0.0247   0000000000000000111100000000
   58   1.4112 1.4359 0.0247   0000000000000000111100000000
   59   1.4359 1.4605 0.0247   0000000000000000111100000000
   60   1.4605 1.4852 0.0247   0000000000000000111100000000
   61   1.4852 1.5099 0.0247   0000000000000000111100000000
   62   1.5099 1.5345 0.0247   0000000000000000111100000000
   63   1.5345 1.5592 0.0247   0000000000000000111100000000
   64   1.5592 1.5839 0.0247   0000000000000000111100000000
   65   1.5839 1.6086 0.0247   0000000000000000111100000000
   66   1.6086 1.6332 0.0247   0000000000000000111101110000
   67   1.6332 1.6579 0.0247   0000000000000000111111110000
   68   1.6579 1.6826 0.0247   0000000000000000111111110000
   69   1.6826 1.7072 0.0247   0000000000000000111111110000
   70   1.7072 1.7319 0.0247   0000000000000000111111110000
   71   1.7319 1.7566 0.0247   0000000000000000011111110000
   72   1.7566 1.7812 0.0247   0000000000000000000011110000
   73   1.7812 1.8059 0.0247   0000000000000000000011110000
   74   1.8059 1.8306 0.0247   0000000000000000000011110000
   75   1.8306 1.8553 0.0247   0000000000000000000011110000
   76   1.8553 1.8799 0.0247   0000000000000000000011110000
   77   1.8799 1.9046 0.0247   0000000000000000000011110000
   78   1.9046 1.9293 0.0247   0000000000000000000011110000
   79   1.9293 1.9539 0.0247   0000000000000000000011110000
   80   1.9539 1.9786 0.0247   0000000000000000000011110000
   81   1.9786 2.0033 0.0247   0000000000000000000011110111
   82   2.0033 2.0280 0.0247   0000000000000000000011111111
   83   2.0280 2.0526 0.0247   0000000000000000000011111111
   84   2.0526 2.0773 0.0247   0000000000000000000011111111
   85   2.0773 2.1020 0.0247   0000000000000000000011111111
   86   2.1020 2.1266 0.0247   0000000000000000000001111111
   87   2.1266 2.1513 0.0247   0000000000000000000001111111
   88   2.1513 2.1760 0.0247   0000000000000000000000001111
   89   2.1760 2.2007 0.0247   0000000000000000000000001111
   90   2.2007 2.2253 0.0247   0000000000000000000000001111
   91   2.2253 2.2500 0.0247   0000000000000000000000001111
 ngper, shell number =          293          41
 ngper, n2d =          293          38
 Nchannels of the left tip =            4
        k1(2pi/a)    k2(2pi/a)       E-Ef (eV)
 
   0.1305731   0.0000000   3.0000000
   0.3641098   0.0000000   3.0000000
   0.3663900   0.0000000   3.0000000
  -0.3817745   0.0000000   3.0000000
 T_ij for propagating states:
    1 -->     1   0.9352742
    1 -->     2   0.0091191
    1 -->     3   0.0000000
    1 -->     4   0.0005141
                 0.94491
    2 -->     1   0.0091191
    2 -->     2   0.5522720
    2 -->     3   0.0000000
    2 -->     4   0.0069960
                 0.56839
    3 -->     1   0.0000000
    3 -->     2   0.0000000
    3 -->     3   0.9882589
    3 -->     4   0.0000000
                 0.98826
    4 -->     1   0.0005141
    4 -->     2   0.0069960
    4 -->     3   0.0000000
    4 -->     4   0.9787970
                 0.98631
 Eigenchannel decomposition:
@    1  3.00000  0.50941
                      0.10706
                      0.87890
                      0.00000
                      0.01404
@    2  3.00000  0.98826
                      0.00000
                      0.00000
                      1.00000
                      0.00000
@    3  3.00000  0.99305
                      0.00370
                      0.02129
                      0.00000
                      0.97501
@    4  3.00000  0.99714
                      0.88923
                      0.09981
                      0.00000
                      0.01096
E-Ef(ev), TOTAL T =    3.0000000   3.4878605
 Nchannels of the left tip =            2
        k1(2pi/a)    k2(2pi/a)       E-Ef (eV)
 
   0.0944360   0.0000000   0.0000000
   0.1028737   0.0000000   0.0000000
 T_ij for propagating states:
    1 -->     1   0.4006197
    1 -->     2   0.0000000
                 0.40062
    2 -->     1   0.0000000
    2 -->     2   0.9815094
                 0.98151
 Eigenchannel decomposition:
@    1  0.00000  0.40062
                      1.00000
                      0.00000
@    2  0.00000  0.98151
                      0.00000
                      1.00000
E-Ef(ev), TOTAL T =    0.0000000   1.3821291
 Nchannels of the left tip =            1
        k1(2pi/a)    k2(2pi/a)       E-Ef (eV)
 
   0.3714236   0.0000000  -3.0000000
 T_ij for propagating states:
    1 -->     1   0.4068649
                 0.40686
 Eigenchannel decomposition:
@    1 -3.00000  0.40686
                      1.00000
E-Ef(ev), TOTAL T =   -3.0000000   0.4068649
     cond         :  1m 2.25s CPU time

