
     Program POST-PROC v.3.1    starts ...
     Today is 30Mar2006 at  3: 8:34 

     nbndx  =     6  nbnd   =     6  natomwfc =     9  npwx   =    1381
     nelec  =   3.00  nkb   =     4  ngl    =     905
 
===== INPUT FILE containing the left lead =====

     GEOMETRY:

     lattice parameter (a_0)   =      12.0000  a.u.
     the volume                =     648.0000 (a.u.)^3
     the cross section         =     144.0000 (a.u.)^2
     l of the unit cell        =       0.3750 (a_0)
     number of atoms/cell      =            1
     number of atomic types    =            1

     crystal axes: (cart. coord. in units of a_0)
               a(1) = (  1.0000  0.0000  0.0000 )  
               a(2) = (  0.0000  1.0000  0.0000 )  
               a(3) = (  0.0000  0.0000  0.3750 )  


   Cartesian axes

     site n.     atom                  positions (a_0 units)
          1           Al  tau(  1)=(  0.0000  0.0000  0.3750  )

     nr1s                      =           40
     nr2s                      =           40
     nr3s                      =           15
     nrx1s                     =           40
     nrx2s                     =           40
     nrx3s                     =           15
     nr1                       =           48
     nr2                       =           48
     nr3                       =           18
     nrx1                      =           48
     nrx2                      =           48
     nrx3                      =           18

 _______________________________
  Radii of nonlocal spheres: 

     type       ibeta     ang. mom.          radius (a_0 units)
          Al      1         0                    0.2260
          Al      2         1                    0.2561

     nbndx  =     6  nbnd   =     6  natomwfc =     9  npwx   =    1381
     nelec  =   3.00  nkb   =     4  ngl    =     905
 
===== INPUT FILE containing the scat. region =====

     GEOMETRY:

     lattice parameter (a_0)   =      12.0000  a.u.
     the volume                =     648.0000 (a.u.)^3
     the cross section         =     144.0000 (a.u.)^2
     l of the unit cell        =       0.3750 (a_0)
     number of atoms/cell      =            1
     number of atomic types    =            1

     crystal axes: (cart. coord. in units of a_0)
               a(1) = (  1.0000  0.0000  0.0000 )  
               a(2) = (  0.0000  1.0000  0.0000 )  
               a(3) = (  0.0000  0.0000  0.3750 )  


   Cartesian axes

     site n.     atom                  positions (a_0 units)
          1           Al  tau(  1)=(  0.0000  0.0000  0.3750  )

     nr1s                      =           40
     nr2s                      =           40
     nr3s                      =           15
     nrx1s                     =           40
     nrx2s                     =           40
     nrx3s                     =           15
     nr1                       =           48
     nr2                       =           48
     nr3                       =           18
     nrx1                      =           48
     nrx2                      =           48
     nrx3                      =           18

 _______________________________
  Radii of nonlocal spheres: 

     type       ibeta     ang. mom.          radius (a_0 units)
          Al      1         0                    0.2260
          Al      2         1                    0.2561
----- General information -----
 
--- T calc. with identical leads (ikind=1) --- 

     nrx                       =           40
     nry                       =           40
     nz1                       =            1


     energy0               =         3.0E+00
     denergy               =        -1.0E-01
     nenergy               =        100
     ecut2d                =         2.5E+01
     ewind                 =         1.0E+00
     epsproj               =         1.0E-03

----- Information about left/right lead -----

     nocros                   =            4
     noins                    =            0
     norb                     =            8
     norbf                    =            8
     nrz                      =           15

      iorb      type   ibeta   ang. mom.   m       position (a_0)
        1        1       1        0        1   taunew(   1)=(  0.0000  0.0000  0.0000)
        2        1       2        1        1   taunew(   2)=(  0.0000  0.0000  0.0000)
        3        1       2        1        2   taunew(   3)=(  0.0000  0.0000  0.0000)
        4        1       2        1        3   taunew(   4)=(  0.0000  0.0000  0.0000)
        5        1       1        0        1   taunew(   5)=(  0.0000  0.0000  0.3750)
        6        1       2        1        1   taunew(   6)=(  0.0000  0.0000  0.3750)
        7        1       2        1        2   taunew(   7)=(  0.0000  0.0000  0.3750)
        8        1       2        1        3   taunew(   8)=(  0.0000  0.0000  0.3750)
    k slab    z(k)  z(k+1)     crossing(iorb=1,norb)
    1   0.0000 0.0250 0.0250   11110000
    2   0.0250 0.0500 0.0250   11110000
    3   0.0500 0.0750 0.0250   11110000
    4   0.0750 0.1000 0.0250   11110000
    5   0.1000 0.1250 0.0250   11110111
    6   0.1250 0.1500 0.0250   11111111
    7   0.1500 0.1750 0.0250   11111111
    8   0.1750 0.2000 0.0250   11111111
    9   0.2000 0.2250 0.0250   11111111
   10   0.2250 0.2500 0.0250   11111111
   11   0.2500 0.2750 0.0250   01111111
   12   0.2750 0.3000 0.0250   00001111
   13   0.3000 0.3250 0.0250   00001111
   14   0.3250 0.3500 0.0250   00001111
   15   0.3500 0.3750 0.0250   00001111
----- Information about scattering region -----

     noins                    =            0
     norb                     =            8
     norbf                    =            8
     nrz                      =           15

      iorb      type   ibeta   ang. mom.   m       position (a_0)
        1        1       1        0        1   taunew(   1)=(  0.0000  0.0000  0.0000)
        2        1       2        1        1   taunew(   2)=(  0.0000  0.0000  0.0000)
        3        1       2        1        2   taunew(   3)=(  0.0000  0.0000  0.0000)
        4        1       2        1        3   taunew(   4)=(  0.0000  0.0000  0.0000)
        5        1       1        0        1   taunew(   5)=(  0.0000  0.0000  0.3750)
        6        1       2        1        1   taunew(   6)=(  0.0000  0.0000  0.3750)
        7        1       2        1        2   taunew(   7)=(  0.0000  0.0000  0.3750)
        8        1       2        1        3   taunew(   8)=(  0.0000  0.0000  0.3750)
    k slab    z(k)  z(k+1)     crossing(iorb=1,norb)
    1   0.0000 0.0250 0.0250   11110000
    2   0.0250 0.0500 0.0250   11110000
    3   0.0500 0.0750 0.0250   11110000
    4   0.0750 0.1000 0.0250   11110000
    5   0.1000 0.1250 0.0250   11110111
    6   0.1250 0.1500 0.0250   11111111
    7   0.1500 0.1750 0.0250   11111111
    8   0.1750 0.2000 0.0250   11111111
    9   0.2000 0.2250 0.0250   11111111
   10   0.2250 0.2500 0.0250   11111111
   11   0.2500 0.2750 0.0250   01111111
   12   0.2750 0.3000 0.0250   00001111
   13   0.3000 0.3250 0.0250   00001111
   14   0.3250 0.3500 0.0250   00001111
   15   0.3500 0.3750 0.0250   00001111
 ngper, shell number =          293          41
 ngper, n2d =          293          30
 Nchannels of the left tip =            4
        k1(2pi/a)    k2(2pi/a)       E-Ef (eV)
 
   0.1149077   0.0000000   2.9500000
   0.3599474   0.0000000   2.9500000
   0.3599474   0.0000000   2.9500000
  -0.3828179   0.0000000   2.9500000
 to transmit
 T_ij for propagating states:
    1 -->     1   1.0000000
    1 -->     2   0.0000000
    1 -->     3   0.0000000
    1 -->     4   0.0000000
                 1.00000
    2 -->     1   0.0000000
    2 -->     2   1.0000000
    2 -->     3   0.0000000
    2 -->     4   0.0000000
                 1.00000
    3 -->     1   0.0000000
    3 -->     2   0.0000000
    3 -->     3   1.0000000
    3 -->     4   0.0000000
                 1.00000
    4 -->     1   0.0000000
    4 -->     2   0.0000000
    4 -->     3   0.0000000
    4 -->     4   1.0000000
                 1.00000
 Eigenchannel decomposition:
@    1  2.95000  1.00000
                      0.00503
                      0.78226
                      0.20948
                      0.00323
@    2  2.95000  1.00000
                      0.97869
                      0.00176
                      0.00608
                      0.01347
@    3  2.95000  1.00000
                      0.01382
                      0.00238
                      0.00055
                      0.98325
@    4  2.95000  1.00000
                      0.00246
                      0.21360
                      0.78388
                      0.00005
E-Ef(ev), T(x2 spins) =    2.9500000   8.0000000
 Nchannels of the left tip =            4
        k1(2pi/a)    k2(2pi/a)       E-Ef (eV)
 
   0.0957950   0.0000000   2.8500000
   0.3541527   0.0000000   2.8500000
   0.3541527   0.0000000   2.8500000
  -0.3871748   0.0000000   2.8500000
 to transmit
 T_ij for propagating states:
    1 -->     1   1.0000000
    1 -->     2   0.0000000
    1 -->     3   0.0000000
    1 -->     4   0.0000000
                 1.00000
    2 -->     1   0.0000000
    2 -->     2   1.0000000
    2 -->     3   0.0000000
    2 -->     4   0.0000000
                 1.00000
    3 -->     1   0.0000000
    3 -->     2   0.0000000
    3 -->     3   1.0000000
    3 -->     4   0.0000000
                 1.00000
    4 -->     1   0.0000000
    4 -->     2   0.0000000
    4 -->     3   0.0000000
    4 -->     4   1.0000000
                 1.00000
 Eigenchannel decomposition:
@    1  2.85000  1.00000
                      0.01030
                      0.77954
                      0.20700
                      0.00316
@    2  2.85000  1.00000
                      0.96557
                      0.00365
                      0.00930
                      0.02148
@    3  2.85000  1.00000
                      0.00114
                      0.19973
                      0.76307
                      0.03605
@    4  2.85000  1.00000
                      0.02299
                      0.01708
                      0.02062
                      0.93931
E-Ef(ev), T(x2 spins) =    2.8500000   8.0000000
 Nchannels of the left tip =            4
        k1(2pi/a)    k2(2pi/a)       E-Ef (eV)
 
   0.0719284   0.0000000   2.7500000
   0.3482632   0.0000000   2.7500000
   0.3482632   0.0000000   2.7500000
  -0.3915305   0.0000000   2.7500000
 to transmit
 T_ij for propagating states:
    1 -->     1   1.0000000
    1 -->     2   0.0000000
    1 -->     3   0.0000000
    1 -->     4   0.0000000
                 1.00000
    2 -->     1   0.0000000
    2 -->     2   1.0000000
    2 -->     3   0.0000000
    2 -->     4   0.0000000
                 1.00000
    3 -->     1   0.0000000
    3 -->     2   0.0000000
    3 -->     3   1.0000000
    3 -->     4   0.0000000
                 1.00000
    4 -->     1   0.0000000
    4 -->     2   0.0000000
    4 -->     3   0.0000000
    4 -->     4   1.0000000
                 1.00000
 Eigenchannel decomposition:
@    1  2.75000  1.00000
                      0.03128
                      0.75555
                      0.20777
                      0.00541
@    2  2.75000  1.00000
                      0.96679
                      0.01992
                      0.01141
                      0.00188
@    3  2.75000  1.00000
                      0.00105
                      0.00460
                      0.00208
                      0.99226
@    4  2.75000  1.00000
                      0.00088
                      0.21993
                      0.77874
                      0.00045
E-Ef(ev), T(x2 spins) =    2.7500000   8.0000000
 Nchannels of the left tip =            4
        k1(2pi/a)    k2(2pi/a)       E-Ef (eV)
 
   0.0345232   0.0000000   2.6500000
   0.3422738   0.0000000   2.6500000
   0.3422738   0.0000000   2.6500000
  -0.3958935   0.0000000   2.6500000
 to transmit
 T_ij for propagating states:
    1 -->     1   1.0000000
    1 -->     2   0.0000000
    1 -->     3   0.0000000
    1 -->     4   0.0000000
                 1.00000
    2 -->     1   0.0000000
    2 -->     2   1.0000000
    2 -->     3   0.0000000
    2 -->     4   0.0000000
                 1.00000
    3 -->     1   0.0000000
    3 -->     2   0.0000000
    3 -->     3   1.0000000
    3 -->     4   0.0000000
                 1.00000
    4 -->     1   0.0000000
    4 -->     2   0.0000000
    4 -->     3   0.0000000
    4 -->     4   1.0000000
                 1.00000
 Eigenchannel decomposition:
@    1  2.65000  1.00000
                      0.92176
                      0.01747
                      0.00146
                      0.05931
@    2  2.65000  1.00000
                      0.02060
                      0.84274
                      0.13633
                      0.00033
@    3  2.65000  1.00000
                      0.05592
                      0.00554
                      0.00906
                      0.92948
@    4  2.65000  1.00000
                      0.00172
                      0.13426
                      0.85316
                      0.01087
E-Ef(ev), T(x2 spins) =    2.6500000   8.0000000
 Nchannels of the left tip =            3
        k1(2pi/a)    k2(2pi/a)       E-Ef (eV)
 
   0.3361788   0.0000000   2.5500000
   0.3361788   0.0000000   2.5500000
  -0.4002717   0.0000000   2.5500000
 to transmit
 T_ij for propagating states:
    1 -->     1   1.0000000
    1 -->     2   0.0000000
    1 -->     3   0.0000000
                 1.00000
    2 -->     1   0.0000000
    2 -->     2   1.0000000
    2 -->     3   0.0000000
                 1.00000
    3 -->     1   0.0000000
    3 -->     2   0.0000000
    3 -->     3   1.0000000
                 1.00000
 Eigenchannel decomposition:
@    1  2.55000  1.00000
                      0.79862
                      0.19857
                      0.00281
@    2  2.55000  1.00000
                      0.00387
                      0.00374
                      0.99240
@    3  2.55000  1.00000
                      0.19751
                      0.79770
                      0.00479
E-Ef(ev), T(x2 spins) =    2.5500000   6.0000000
 Nchannels of the left tip =            3
        k1(2pi/a)    k2(2pi/a)       E-Ef (eV)
 
   0.3299724   0.0000000   2.4500000
   0.3299724   0.0000000   2.4500000
  -0.4046730   0.0000000   2.4500000
 to transmit
 T_ij for propagating states:
    1 -->     1   1.0000000
    1 -->     2   0.0000000
    1 -->     3   0.0000000
                 1.00000
    2 -->     1   0.0000000
    2 -->     2   1.0000000
    2 -->     3   0.0000000
                 1.00000
    3 -->     1   0.0000000
    3 -->     2   0.0000000
    3 -->     3   1.0000000
                 1.00000
 Eigenchannel decomposition:
@    1  2.45000  1.00000
                      0.80565
                      0.19029
                      0.00406
@    2  2.45000  1.00000
                      0.00554
                      0.00744
                      0.98702
@    3  2.45000  1.00000
                      0.18881
                      0.80227
                      0.00892
E-Ef(ev), T(x2 spins) =    2.4500000   6.0000000
 Nchannels of the left tip =            3
        k1(2pi/a)    k2(2pi/a)       E-Ef (eV)
 
   0.3236479   0.0000000   2.3500000
   0.3236479   0.0000000   2.3500000
  -0.4091059   0.0000000   2.3500000
 to transmit
 T_ij for propagating states:
    1 -->     1   1.0000000
    1 -->     2   0.0000000
    1 -->     3   0.0000000
                 1.00000
    2 -->     1   0.0000000
    2 -->     2   1.0000000
    2 -->     3   0.0000000
                 1.00000
    3 -->     1   0.0000000
    3 -->     2   0.0000000
    3 -->     3   1.0000000
                 1.00000
 Eigenchannel decomposition:
@    1  2.35000  1.00000
                      0.81186
                      0.18548
                      0.00267
@    2  2.35000  1.00000
                      0.00652
                      0.00769
                      0.98580
@    3  2.35000  1.00000
                      0.18163
                      0.80684
                      0.01154
E-Ef(ev), T(x2 spins) =    2.3500000   6.0000000
 Nchannels of the left tip =            3
        k1(2pi/a)    k2(2pi/a)       E-Ef (eV)
 
   0.3171982   0.0000000   2.2500000
   0.3171982   0.0000000   2.2500000
  -0.4135791   0.0000000   2.2500000
 to transmit
 T_ij for propagating states:
    1 -->     1   1.0000000
    1 -->     2   0.0000000
    1 -->     3   0.0000000
                 1.00000
    2 -->     1   0.0000000
    2 -->     2   1.0000000
    2 -->     3   0.0000000
                 1.00000
    3 -->     1   0.0000000
    3 -->     2   0.0000000
    3 -->     3   1.0000000
                 1.00000
 Eigenchannel decomposition:
@    1  2.25000  1.00000
                      0.78749
                      0.21082
                      0.00169
@    2  2.25000  1.00000
                      0.21127
                      0.78674
                      0.00199
@    3  2.25000  1.00000
                      0.00125
                      0.00244
                      0.99631
E-Ef(ev), T(x2 spins) =    2.2500000   6.0000000
 Nchannels of the left tip =            3
        k1(2pi/a)    k2(2pi/a)       E-Ef (eV)
 
   0.3106152   0.0000000   2.1500000
   0.3106152   0.0000000   2.1500000
  -0.4181029   0.0000000   2.1500000
 to transmit
 T_ij for propagating states:
    1 -->     1   1.0000000
    1 -->     2   0.0000000
    1 -->     3   0.0000000
                 1.00000
    2 -->     1   0.0000000
    2 -->     2   1.0000000
    2 -->     3   0.0000000
                 1.00000
    3 -->     1   0.0000000
    3 -->     2   0.0000000
    3 -->     3   1.0000000
                 1.00000
 Eigenchannel decomposition:
@    1  2.15000  1.00000
                      0.69878
                      0.29796
                      0.00326
@    2  2.15000  1.00000
                      0.28776
                      0.67898
                      0.03326
@    3  2.15000  1.00000
                      0.01346
                      0.02306
                      0.96348
E-Ef(ev), T(x2 spins) =    2.1500000   6.0000000
 Nchannels of the left tip =            3
        k1(2pi/a)    k2(2pi/a)       E-Ef (eV)
 
   0.3038903   0.0000000   2.0500000
   0.3038903   0.0000000   2.0500000
  -0.4226888   0.0000000   2.0500000
 to transmit
 T_ij for propagating states:
    1 -->     1   1.0000000
    1 -->     2   0.0000000
    1 -->     3   0.0000000
                 1.00000
    2 -->     1   0.0000000
    2 -->     2   1.0000000
    2 -->     3   0.0000000
                 1.00000
    3 -->     1   0.0000000
    3 -->     2   0.0000000
    3 -->     3   1.0000000
                 1.00000
 Eigenchannel decomposition:
@    1  2.05000  1.00000
                      0.83308
                      0.16287
                      0.00405
@    2  2.05000  1.00000
                      0.15104
                      0.71486
                      0.13411
@    3  2.05000  1.00000
                      0.01588
                      0.12227
                      0.86185
E-Ef(ev), T(x2 spins) =    2.0500000   6.0000000
 Nchannels of the left tip =            3
        k1(2pi/a)    k2(2pi/a)       E-Ef (eV)
 
   0.2970136   0.0000000   1.9500000
   0.2970136   0.0000000   1.9500000
  -0.4273510   0.0000000   1.9500000
 to transmit
 T_ij for propagating states:
    1 -->     1   1.0000000
    1 -->     2   0.0000000
    1 -->     3   0.0000000
                 1.00000
    2 -->     1   0.0000000
    2 -->     2   1.0000000
    2 -->     3   0.0000000
                 1.00000
    3 -->     1   0.0000000
    3 -->     2   0.0000000
    3 -->     3   1.0000000
                 1.00000
 Eigenchannel decomposition:
@    1  1.95000  1.00000
                      0.79396
                      0.20342
                      0.00262
@    2  1.95000  1.00000
                      0.20124
                      0.77914
                      0.01962
@    3  1.95000  1.00000
                      0.00481
                      0.01743
                      0.97776
E-Ef(ev), T(x2 spins) =    1.9500000   6.0000000
 Nchannels of the left tip =            3
        k1(2pi/a)    k2(2pi/a)       E-Ef (eV)
 
   0.2899744   0.0000000   1.8500000
   0.2899744   0.0000000   1.8500000
  -0.4321070   0.0000000   1.8500000
 to transmit
 T_ij for propagating states:
    1 -->     1   1.0000000
    1 -->     2   0.0000000
    1 -->     3   0.0000000
                 1.00000
    2 -->     1   0.0000000
    2 -->     2   1.0000000
    2 -->     3   0.0000000
                 1.00000
    3 -->     1   0.0000000
    3 -->     2   0.0000000
    3 -->     3   1.0000000
                 1.00000
 Eigenchannel decomposition:
@    1  1.85000  1.00000
                      0.82018
                      0.17749
                      0.00233
@    2  1.85000  1.00000
                      0.17656
                      0.80914
                      0.01430
@    3  1.85000  1.00000
                      0.00326
                      0.01337
                      0.98338
E-Ef(ev), T(x2 spins) =    1.8500000   6.0000000
 Nchannels of the left tip =            3
        k1(2pi/a)    k2(2pi/a)       E-Ef (eV)
 
   0.2827603   0.0000000   1.7500000
   0.2827603   0.0000000   1.7500000
  -0.4369791   0.0000000   1.7500000
 to transmit
 T_ij for propagating states:
    1 -->     1   1.0000000
    1 -->     2   0.0000000
    1 -->     3   0.0000000
                 1.00000
    2 -->     1   0.0000000
    2 -->     2   1.0000000
    2 -->     3   0.0000000
                 1.00000
    3 -->     1   0.0000000
    3 -->     2   0.0000000
    3 -->     3   1.0000000
                 1.00000
 Eigenchannel decomposition:
@    1  1.75000  1.00000
                      0.86259
                      0.13500
                      0.00240
@    2  1.75000  1.00000
                      0.10184
                      0.58190
                      0.31626
@    3  1.75000  1.00000
                      0.03557
                      0.28310
                      0.68133
E-Ef(ev), T(x2 spins) =    1.7500000   6.0000000
 Nchannels of the left tip =            3
        k1(2pi/a)    k2(2pi/a)       E-Ef (eV)
 
   0.2753576   0.0000000   1.6500000
   0.2753576   0.0000000   1.6500000
  -0.4419974   0.0000000   1.6500000
 to transmit
 T_ij for propagating states:
    1 -->     1   1.0000000
    1 -->     2   0.0000000
    1 -->     3   0.0000000
                 1.00000
    2 -->     1   0.0000000
    2 -->     2   1.0000000
    2 -->     3   0.0000000
                 1.00000
    3 -->     1   0.0000000
    3 -->     2   0.0000000
    3 -->     3   1.0000000
                 1.00000
 Eigenchannel decomposition:
@    1  1.65000  1.00000
                      0.83881
                      0.15834
                      0.00285
@    2  1.65000  1.00000
                      0.15943
                      0.83764
                      0.00292
@    3  1.65000  1.00000
                      0.00176
                      0.00402
                      0.99423
E-Ef(ev), T(x2 spins) =    1.6500000   6.0000000
 Nchannels of the left tip =            3
        k1(2pi/a)    k2(2pi/a)       E-Ef (eV)
 
   0.2677505   0.0000000   1.5500000
   0.2677505   0.0000000   1.5500000
  -0.4472040   0.0000000   1.5500000
 to transmit
 T_ij for propagating states:
    1 -->     1   1.0000000
    1 -->     2   0.0000000
    1 -->     3   0.0000000
                 1.00000
    2 -->     1   0.0000000
    2 -->     2   1.0000000
    2 -->     3   0.0000000
                 1.00000
    3 -->     1   0.0000000
    3 -->     2   0.0000000
    3 -->     3   1.0000000
                 1.00000
 Eigenchannel decomposition:
@    1  1.55000  1.00000
                      0.86788
                      0.13054
                      0.00158
@    2  1.55000  1.00000
                      0.13089
                      0.86288
                      0.00623
@    3  1.55000  1.00000
                      0.00123
                      0.00658
                      0.99219
E-Ef(ev), T(x2 spins) =    1.5500000   6.0000000
 Nchannels of the left tip =            3
        k1(2pi/a)    k2(2pi/a)       E-Ef (eV)
 
   0.2599209   0.0000000   1.4500000
   0.2599209   0.0000000   1.4500000
  -0.4526605   0.0000000   1.4500000
 to transmit
 T_ij for propagating states:
    1 -->     1   1.0000000
    1 -->     2   0.0000000
    1 -->     3   0.0000000
                 1.00000
    2 -->     1   0.0000000
    2 -->     2   1.0000000
    2 -->     3   0.0000000
                 1.00000
    3 -->     1   0.0000000
    3 -->     2   0.0000000
    3 -->     3   1.0000000
                 1.00000
 Eigenchannel decomposition:
@    1  1.45000  1.00000
                      0.98088
                      0.01604
                      0.00309
@    2  1.45000  1.00000
                      0.01056
                      0.19314
                      0.79630
@    3  1.45000  1.00000
                      0.00857
                      0.79082
                      0.20061
E-Ef(ev), T(x2 spins) =    1.4500000   6.0000000
 Nchannels of the left tip =            3
        k1(2pi/a)    k2(2pi/a)       E-Ef (eV)
 
   0.2518482   0.0000000   1.3500000
   0.2518482   0.0000000   1.3500000
  -0.4584645   0.0000000   1.3500000
 to transmit
 T_ij for propagating states:
    1 -->     1   1.0000000
    1 -->     2   0.0000000
    1 -->     3   0.0000000
                 1.00000
    2 -->     1   0.0000000
    2 -->     2   1.0000000
    2 -->     3   0.0000000
                 1.00000
    3 -->     1   0.0000000
    3 -->     2   0.0000000
    3 -->     3   1.0000000
                 1.00000
 Eigenchannel decomposition:
@    1  1.35000  1.00000
                      0.84529
                      0.15299
                      0.00172
@    2  1.35000  1.00000
                      0.15398
                      0.84437
                      0.00165
@    3  1.35000  1.00000
                      0.00074
                      0.00263
                      0.99663
E-Ef(ev), T(x2 spins) =    1.3500000   6.0000000
 Nchannels of the left tip =            3
        k1(2pi/a)    k2(2pi/a)       E-Ef (eV)
 
   0.2435080   0.0000000   1.2500000
   0.2435080   0.0000000   1.2500000
  -0.4647857   0.0000000   1.2500000
 to transmit
 T_ij for propagating states:
    1 -->     1   1.0000000
    1 -->     2   0.0000000
    1 -->     3   0.0000000
                 1.00000
    2 -->     1   0.0000000
    2 -->     2   1.0000000
    2 -->     3   0.0000000
                 1.00000
    3 -->     1   0.0000000
    3 -->     2   0.0000000
    3 -->     3   1.0000000
                 1.00000
 Eigenchannel decomposition:
@    1  1.25000  1.00000
                      0.66017
                      0.33689
                      0.00293
@    2  1.25000  1.00000
                      0.33533
                      0.65518
                      0.00949
@    3  1.25000  1.00000
                      0.00450
                      0.00793
                      0.98757
E-Ef(ev), T(x2 spins) =    1.2500000   6.0000000
 Nchannels of the left tip =            3
        k1(2pi/a)    k2(2pi/a)       E-Ef (eV)
 
   0.2348718   0.0000000   1.1500000
   0.2348718   0.0000000   1.1500000
  -0.4719689   0.0000000   1.1500000
 to transmit
 T_ij for propagating states:
    1 -->     1   1.0000000
    1 -->     2   0.0000000
    1 -->     3   0.0000000
                 1.00000
    2 -->     1   0.0000000
    2 -->     2   1.0000000
    2 -->     3   0.0000000
                 1.00000
    3 -->     1   0.0000000
    3 -->     2   0.0000000
    3 -->     3   1.0000000
                 1.00000
 Eigenchannel decomposition:
@    1  1.15000  1.00000
                      0.76488
                      0.23445
                      0.00066
@    2  1.15000  1.00000
                      0.23456
                      0.76476
                      0.00068
@    3  1.15000  1.00000
                      0.00056
                      0.00079
                      0.99866
E-Ef(ev), T(x2 spins) =    1.1500000   6.0000000
 Nchannels of the left tip =            3
        k1(2pi/a)    k2(2pi/a)       E-Ef (eV)
 
   0.2259057   0.0000000   1.0500000
   0.2259057   0.0000000   1.0500000
  -0.4809611   0.0000000   1.0500000
 to transmit
 T_ij for propagating states:
    1 -->     1   1.0000000
    1 -->     2   0.0000000
    1 -->     3   0.0000000
                 1.00000
    2 -->     1   0.0000000
    2 -->     2   1.0000000
    2 -->     3   0.0000000
                 1.00000
    3 -->     1   0.0000000
    3 -->     2   0.0000000
    3 -->     3   1.0000000
                 1.00000
 Eigenchannel decomposition:
@    1  1.05000  1.00000
                      0.93375
                      0.06592
                      0.00033
@    2  1.05000  1.00000
                      0.06598
                      0.93373
                      0.00029
@    3  1.05000  1.00000
                      0.00027
                      0.00036
                      0.99938
E-Ef(ev), T(x2 spins) =    1.0500000   6.0000000
 Nchannels of the left tip =            2
        k1(2pi/a)    k2(2pi/a)       E-Ef (eV)
 
   0.2165684   0.0000000   0.9500000
   0.2165684   0.0000000   0.9500000
 to transmit
 T_ij for propagating states:
    1 -->     1   1.0000000
    1 -->     2   0.0000000
                 1.00000
    2 -->     1   0.0000000
    2 -->     2   1.0000000
                 1.00000
 Eigenchannel decomposition:
@    1  0.95000  1.00000
                      0.76952
                      0.23048
@    2  0.95000  1.00000
                      0.23048
                      0.76952
E-Ef(ev), T(x2 spins) =    0.9500000   4.0000000
 Nchannels of the left tip =            2
        k1(2pi/a)    k2(2pi/a)       E-Ef (eV)
 
   0.2068099   0.0000000   0.8500000
   0.2068099   0.0000000   0.8500000
 to transmit
 T_ij for propagating states:
    1 -->     1   1.0000000
    1 -->     2   0.0000000
                 1.00000
    2 -->     1   0.0000000
    2 -->     2   1.0000000
                 1.00000
 Eigenchannel decomposition:
@    1  0.85000  1.00000
                      0.81359
                      0.18641
@    2  0.85000  1.00000
                      0.18641
                      0.81359
E-Ef(ev), T(x2 spins) =    0.8500000   4.0000000
 Nchannels of the left tip =            2
        k1(2pi/a)    k2(2pi/a)       E-Ef (eV)
 
   0.1965672   0.0000000   0.7500000
   0.1965672   0.0000000   0.7500000
 to transmit
 T_ij for propagating states:
    1 -->     1   1.0000000
    1 -->     2   0.0000000
                 1.00000
    2 -->     1   0.0000000
    2 -->     2   1.0000000
                 1.00000
 Eigenchannel decomposition:
@    1  0.75000  1.00000
                      0.86864
                      0.13136
@    2  0.75000  1.00000
                      0.13136
                      0.86864
E-Ef(ev), T(x2 spins) =    0.7500000   4.0000000
 Nchannels of the left tip =            2
        k1(2pi/a)    k2(2pi/a)       E-Ef (eV)
 
   0.1857603   0.0000000   0.6500000
   0.1857603   0.0000000   0.6500000
 to transmit
 T_ij for propagating states:
    1 -->     1   1.0000000
    1 -->     2   0.0000000
                 1.00000
    2 -->     1   0.0000000
    2 -->     2   1.0000000
                 1.00000
 Eigenchannel decomposition:
@    1  0.65000  1.00000
                      0.71309
                      0.28691
@    2  0.65000  1.00000
                      0.28691
                      0.71309
E-Ef(ev), T(x2 spins) =    0.6500000   4.0000000
 Nchannels of the left tip =            2
        k1(2pi/a)    k2(2pi/a)       E-Ef (eV)
 
   0.1742842   0.0000000   0.5500000
   0.1742842   0.0000000   0.5500000
 to transmit
 T_ij for propagating states:
    1 -->     1   1.0000000
    1 -->     2   0.0000000
                 1.00000
    2 -->     1   0.0000000
    2 -->     2   1.0000000
                 1.00000
 Eigenchannel decomposition:
@    1  0.55000  1.00000
                      0.52038
                      0.47962
@    2  0.55000  1.00000
                      0.47962
                      0.52038
E-Ef(ev), T(x2 spins) =    0.5500000   4.0000000
 Nchannels of the left tip =            2
        k1(2pi/a)    k2(2pi/a)       E-Ef (eV)
 
   0.1619968   0.0000000   0.4500000
   0.1619968   0.0000000   0.4500000
 to transmit
 T_ij for propagating states:
    1 -->     1   1.0000000
    1 -->     2   0.0000000
                 1.00000
    2 -->     1   0.0000000
    2 -->     2   1.0000000
                 1.00000
 Eigenchannel decomposition:
@    1  0.45000  1.00000
                      0.56051
                      0.43949
@    2  0.45000  1.00000
                      0.43949
                      0.56051
E-Ef(ev), T(x2 spins) =    0.4500000   4.0000000
 Nchannels of the left tip =            2
        k1(2pi/a)    k2(2pi/a)       E-Ef (eV)
 
   0.1486968   0.0000000   0.3500000
   0.1486968   0.0000000   0.3500000
 to transmit
 T_ij for propagating states:
    1 -->     1   1.0000000
    1 -->     2   0.0000000
                 1.00000
    2 -->     1   0.0000000
    2 -->     2   1.0000000
                 1.00000
 Eigenchannel decomposition:
@    1  0.35000  1.00000
                      0.95321
                      0.04679
@    2  0.35000  1.00000
                      0.04679
                      0.95321
E-Ef(ev), T(x2 spins) =    0.3500000   4.0000000
 Nchannels of the left tip =            2
        k1(2pi/a)    k2(2pi/a)       E-Ef (eV)
 
   0.1340834   0.0000000   0.2500000
   0.1340834   0.0000000   0.2500000
 to transmit
 T_ij for propagating states:
    1 -->     1   1.0000000
    1 -->     2   0.0000000
                 1.00000
    2 -->     1   0.0000000
    2 -->     2   1.0000000
                 1.00000
 Eigenchannel decomposition:
@    1  0.25000  1.00000
                      0.59603
                      0.40397
@    2  0.25000  1.00000
                      0.40397
                      0.59603
E-Ef(ev), T(x2 spins) =    0.2500000   4.0000000
 Nchannels of the left tip =            2
        k1(2pi/a)    k2(2pi/a)       E-Ef (eV)
 
   0.1176683   0.0000000   0.1500000
   0.1176683   0.0000000   0.1500000
 to transmit
 T_ij for propagating states:
    1 -->     1   1.0000000
    1 -->     2   0.0000000
                 1.00000
    2 -->     1   0.0000000
    2 -->     2   1.0000000
                 1.00000
 Eigenchannel decomposition:
@    1  0.15000  1.00000
                      0.63711
                      0.36289
@    2  0.15000  1.00000
                      0.36289
                      0.63711
E-Ef(ev), T(x2 spins) =    0.1500000   4.0000000
 Nchannels of the left tip =            2
        k1(2pi/a)    k2(2pi/a)       E-Ef (eV)
 
   0.0985550   0.0000000   0.0500000
   0.0985550   0.0000000   0.0500000
 to transmit
 T_ij for propagating states:
    1 -->     1   1.0000000
    1 -->     2   0.0000000
                 1.00000
    2 -->     1   0.0000000
    2 -->     2   1.0000000
                 1.00000
 Eigenchannel decomposition:
@    1  0.05000  1.00000
                      0.58086
                      0.41914
@    2  0.05000  1.00000
                      0.41914
                      0.58086
E-Ef(ev), T(x2 spins) =    0.0500000   4.0000000
 Nchannels of the left tip =            2
        k1(2pi/a)    k2(2pi/a)       E-Ef (eV)
 
   0.0747004   0.0000000  -0.0500000
   0.0747004   0.0000000  -0.0500000
 to transmit
 T_ij for propagating states:
    1 -->     1   1.0000000
    1 -->     2   0.0000000
                 1.00000
    2 -->     1   0.0000000
    2 -->     2   1.0000000
                 1.00000
 Eigenchannel decomposition:
@    1 -0.05000  1.00000
                      0.60840
                      0.39160
@    2 -0.05000  1.00000
                      0.39160
                      0.60840
E-Ef(ev), T(x2 spins) =   -0.0500000   4.0000000
 Nchannels of the left tip =            2
        k1(2pi/a)    k2(2pi/a)       E-Ef (eV)
 
   0.0380397   0.0000000  -0.1500000
   0.0380397   0.0000000  -0.1500000
 to transmit
 T_ij for propagating states:
    1 -->     1   1.0000000
    1 -->     2   0.0000000
                 1.00000
    2 -->     1   0.0000000
    2 -->     2   1.0000000
                 1.00000
 Eigenchannel decomposition:
@    1 -0.15000  1.00000
                      0.77315
                      0.22685
@    2 -0.15000  1.00000
                      0.22685
                      0.77315
E-Ef(ev), T(x2 spins) =   -0.1500000   4.0000000
 Nchannels of the left tip =            0
        k1(2pi/a)    k2(2pi/a)       E-Ef (eV)
 
 to transmit
          E-Ef(ev), T =   -0.2500000   0.0000000
 Nchannels of the left tip =            0
        k1(2pi/a)    k2(2pi/a)       E-Ef (eV)
 
 to transmit
          E-Ef(ev), T =   -0.3500000   0.0000000
 Nchannels of the left tip =            0
        k1(2pi/a)    k2(2pi/a)       E-Ef (eV)
 
 to transmit
          E-Ef(ev), T =   -0.4500000   0.0000000
 Nchannels of the left tip =            0
        k1(2pi/a)    k2(2pi/a)       E-Ef (eV)
 
 to transmit
          E-Ef(ev), T =   -0.5500000   0.0000000
 Nchannels of the left tip =            0
        k1(2pi/a)    k2(2pi/a)       E-Ef (eV)
 
 to transmit
          E-Ef(ev), T =   -0.6500000   0.0000000
 Nchannels of the left tip =            0
        k1(2pi/a)    k2(2pi/a)       E-Ef (eV)
 
 to transmit
          E-Ef(ev), T =   -0.7500000   0.0000000
 Nchannels of the left tip =            0
        k1(2pi/a)    k2(2pi/a)       E-Ef (eV)
 
 to transmit
          E-Ef(ev), T =   -0.8500000   0.0000000
 Nchannels of the left tip =            0
        k1(2pi/a)    k2(2pi/a)       E-Ef (eV)
 
 to transmit
          E-Ef(ev), T =   -0.9500000   0.0000000
 Nchannels of the left tip =            0
        k1(2pi/a)    k2(2pi/a)       E-Ef (eV)
 
 to transmit
          E-Ef(ev), T =   -1.0500000   0.0000000
 Nchannels of the left tip =            0
        k1(2pi/a)    k2(2pi/a)       E-Ef (eV)
 
 to transmit
          E-Ef(ev), T =   -1.1500000   0.0000000
 Nchannels of the left tip =            1
        k1(2pi/a)    k2(2pi/a)       E-Ef (eV)
 
   0.4872265   0.0000000  -1.2500000
 to transmit
 T_ij for propagating states:
    1 -->     1   1.0000000
                 1.00000
 Eigenchannel decomposition:
@    1 -1.25000  1.00000
                      1.00000
E-Ef(ev), T(x2 spins) =   -1.2500000   2.0000000
 Nchannels of the left tip =            1
        k1(2pi/a)    k2(2pi/a)       E-Ef (eV)
 
   0.4748287   0.0000000  -1.3500000
 to transmit
 T_ij for propagating states:
    1 -->     1   1.0000000
                 1.00000
 Eigenchannel decomposition:
@    1 -1.35000  1.00000
                      1.00000
E-Ef(ev), T(x2 spins) =   -1.3500000   2.0000000
 Nchannels of the left tip =            1
        k1(2pi/a)    k2(2pi/a)       E-Ef (eV)
 
   0.4660660   0.0000000  -1.4500000
 to transmit
 T_ij for propagating states:
    1 -->     1   1.0000000
                 1.00000
 Eigenchannel decomposition:
@    1 -1.45000  1.00000
                      1.00000
E-Ef(ev), T(x2 spins) =   -1.4500000   2.0000000
 Nchannels of the left tip =            1
        k1(2pi/a)    k2(2pi/a)       E-Ef (eV)
 
   0.4585491   0.0000000  -1.5500000
 to transmit
 T_ij for propagating states:
    1 -->     1   1.0000000
                 1.00000
 Eigenchannel decomposition:
@    1 -1.55000  1.00000
                      1.00000
E-Ef(ev), T(x2 spins) =   -1.5500000   2.0000000
 Nchannels of the left tip =            1
        k1(2pi/a)    k2(2pi/a)       E-Ef (eV)
 
   0.4516792   0.0000000  -1.6500000
 to transmit
 T_ij for propagating states:
    1 -->     1   1.0000000
                 1.00000
 Eigenchannel decomposition:
@    1 -1.65000  1.00000
                      1.00000
E-Ef(ev), T(x2 spins) =   -1.6500000   2.0000000
 Nchannels of the left tip =            1
        k1(2pi/a)    k2(2pi/a)       E-Ef (eV)
 
   0.4451998   0.0000000  -1.7500000
 to transmit
 T_ij for propagating states:
    1 -->     1   1.0000000
                 1.00000
 Eigenchannel decomposition:
@    1 -1.75000  1.00000
                      1.00000
E-Ef(ev), T(x2 spins) =   -1.7500000   2.0000000
 Nchannels of the left tip =            1
        k1(2pi/a)    k2(2pi/a)       E-Ef (eV)
 
   0.4389744   0.0000000  -1.8500000
 to transmit
 T_ij for propagating states:
    1 -->     1   1.0000000
                 1.00000
 Eigenchannel decomposition:
@    1 -1.85000  1.00000
                      1.00000
E-Ef(ev), T(x2 spins) =   -1.8500000   2.0000000
 Nchannels of the left tip =            1
        k1(2pi/a)    k2(2pi/a)       E-Ef (eV)
 
   0.4329205   0.0000000  -1.9500000
 to transmit
 T_ij for propagating states:
    1 -->     1   1.0000000
                 1.00000
 Eigenchannel decomposition:
@    1 -1.95000  1.00000
                      1.00000
E-Ef(ev), T(x2 spins) =   -1.9500000   2.0000000
 Nchannels of the left tip =            1
        k1(2pi/a)    k2(2pi/a)       E-Ef (eV)
 
   0.4269843   0.0000000  -2.0500000
 to transmit
 T_ij for propagating states:
    1 -->     1   1.0000000
                 1.00000
 Eigenchannel decomposition:
@    1 -2.05000  1.00000
                      1.00000
E-Ef(ev), T(x2 spins) =   -2.0500000   2.0000000
 Nchannels of the left tip =            1
        k1(2pi/a)    k2(2pi/a)       E-Ef (eV)
 
   0.4211281   0.0000000  -2.1500000
 to transmit
 T_ij for propagating states:
    1 -->     1   1.0000000
                 1.00000
 Eigenchannel decomposition:
@    1 -2.15000  1.00000
                      1.00000
E-Ef(ev), T(x2 spins) =   -2.1500000   2.0000000
 Nchannels of the left tip =            1
        k1(2pi/a)    k2(2pi/a)       E-Ef (eV)
 
   0.4153243   0.0000000  -2.2500000
 to transmit
 T_ij for propagating states:
    1 -->     1   1.0000000
                 1.00000
 Eigenchannel decomposition:
@    1 -2.25000  1.00000
                      1.00000
E-Ef(ev), T(x2 spins) =   -2.2500000   2.0000000
 Nchannels of the left tip =            1
        k1(2pi/a)    k2(2pi/a)       E-Ef (eV)
 
   0.4095521   0.0000000  -2.3500000
 to transmit
 T_ij for propagating states:
    1 -->     1   1.0000000
                 1.00000
 Eigenchannel decomposition:
@    1 -2.35000  1.00000
                      1.00000
E-Ef(ev), T(x2 spins) =   -2.3500000   2.0000000
 Nchannels of the left tip =            1
        k1(2pi/a)    k2(2pi/a)       E-Ef (eV)
 
   0.4037948   0.0000000  -2.4500000
 to transmit
 T_ij for propagating states:
    1 -->     1   1.0000000
                 1.00000
 Eigenchannel decomposition:
@    1 -2.45000  1.00000
                      1.00000
E-Ef(ev), T(x2 spins) =   -2.4500000   2.0000000
 Nchannels of the left tip =            1
        k1(2pi/a)    k2(2pi/a)       E-Ef (eV)
 
   0.3980391   0.0000000  -2.5500000
 to transmit
 T_ij for propagating states:
    1 -->     1   1.0000000
                 1.00000
 Eigenchannel decomposition:
@    1 -2.55000  1.00000
                      1.00000
E-Ef(ev), T(x2 spins) =   -2.5500000   2.0000000
 Nchannels of the left tip =            1
        k1(2pi/a)    k2(2pi/a)       E-Ef (eV)
 
   0.3922735   0.0000000  -2.6500000
 to transmit
 T_ij for propagating states:
    1 -->     1   1.0000000
                 1.00000
 Eigenchannel decomposition:
@    1 -2.65000  1.00000
                      1.00000
E-Ef(ev), T(x2 spins) =   -2.6500000   2.0000000
 Nchannels of the left tip =            1
        k1(2pi/a)    k2(2pi/a)       E-Ef (eV)
 
   0.3864884   0.0000000  -2.7500000
 to transmit
 T_ij for propagating states:
    1 -->     1   1.0000000
                 1.00000
 Eigenchannel decomposition:
@    1 -2.75000  1.00000
                      1.00000
E-Ef(ev), T(x2 spins) =   -2.7500000   2.0000000
 Nchannels of the left tip =            1
        k1(2pi/a)    k2(2pi/a)       E-Ef (eV)
 
   0.3806753   0.0000000  -2.8500000
 to transmit
 T_ij for propagating states:
    1 -->     1   1.0000000
                 1.00000
 Eigenchannel decomposition:
@    1 -2.85000  1.00000
                      1.00000
E-Ef(ev), T(x2 spins) =   -2.8500000   2.0000000
 Nchannels of the left tip =            1
        k1(2pi/a)    k2(2pi/a)       E-Ef (eV)
 
   0.3748264   0.0000000  -2.9500000
 to transmit
 T_ij for propagating states:
    1 -->     1   1.0000000
                 1.00000
 Eigenchannel decomposition:
@    1 -2.95000  1.00000
                      1.00000
E-Ef(ev), T(x2 spins) =   -2.9500000   2.0000000
 Nchannels of the left tip =            1
        k1(2pi/a)    k2(2pi/a)       E-Ef (eV)
 
   0.3689346   0.0000000  -3.0500000
 to transmit
 T_ij for propagating states:
    1 -->     1   1.0000000
                 1.00000
 Eigenchannel decomposition:
@    1 -3.05000  1.00000
                      1.00000
E-Ef(ev), T(x2 spins) =   -3.0500000   2.0000000
 Nchannels of the left tip =            1
        k1(2pi/a)    k2(2pi/a)       E-Ef (eV)
 
   0.3629930   0.0000000  -3.1500000
 to transmit
 T_ij for propagating states:
    1 -->     1   1.0000000
                 1.00000
 Eigenchannel decomposition:
@    1 -3.15000  1.00000
                      1.00000
E-Ef(ev), T(x2 spins) =   -3.1500000   2.0000000
 Nchannels of the left tip =            1
        k1(2pi/a)    k2(2pi/a)       E-Ef (eV)
 
   0.3569952   0.0000000  -3.2500000
 to transmit
 T_ij for propagating states:
    1 -->     1   1.0000000
                 1.00000
 Eigenchannel decomposition:
@    1 -3.25000  1.00000
                      1.00000
E-Ef(ev), T(x2 spins) =   -3.2500000   2.0000000
 Nchannels of the left tip =            1
        k1(2pi/a)    k2(2pi/a)       E-Ef (eV)
 
   0.3509347   0.0000000  -3.3500000
 to transmit
 T_ij for propagating states:
    1 -->     1   1.0000000
                 1.00000
 Eigenchannel decomposition:
@    1 -3.35000  1.00000
                      1.00000
E-Ef(ev), T(x2 spins) =   -3.3500000   2.0000000
 Nchannels of the left tip =            1
        k1(2pi/a)    k2(2pi/a)       E-Ef (eV)
 
   0.3448053   0.0000000  -3.4500000
 to transmit
 T_ij for propagating states:
    1 -->     1   1.0000000
                 1.00000
 Eigenchannel decomposition:
@    1 -3.45000  1.00000
                      1.00000
E-Ef(ev), T(x2 spins) =   -3.4500000   2.0000000
 Nchannels of the left tip =            1
        k1(2pi/a)    k2(2pi/a)       E-Ef (eV)
 
   0.3386003   0.0000000  -3.5500000
 to transmit
 T_ij for propagating states:
    1 -->     1   1.0000000
                 1.00000
 Eigenchannel decomposition:
@    1 -3.55000  1.00000
                      1.00000
E-Ef(ev), T(x2 spins) =   -3.5500000   2.0000000
 Nchannels of the left tip =            1
        k1(2pi/a)    k2(2pi/a)       E-Ef (eV)
 
   0.3323132   0.0000000  -3.6500000
 to transmit
 T_ij for propagating states:
    1 -->     1   1.0000000
                 1.00000
 Eigenchannel decomposition:
@    1 -3.65000  1.00000
                      1.00000
E-Ef(ev), T(x2 spins) =   -3.6500000   2.0000000
 Nchannels of the left tip =            1
        k1(2pi/a)    k2(2pi/a)       E-Ef (eV)
 
   0.3259371   0.0000000  -3.7500000
 to transmit
 T_ij for propagating states:
    1 -->     1   1.0000000
                 1.00000
 Eigenchannel decomposition:
@    1 -3.75000  1.00000
                      1.00000
E-Ef(ev), T(x2 spins) =   -3.7500000   2.0000000
 Nchannels of the left tip =            1
        k1(2pi/a)    k2(2pi/a)       E-Ef (eV)
 
   0.3194646   0.0000000  -3.8500000
 to transmit
 T_ij for propagating states:
    1 -->     1   1.0000000
                 1.00000
 Eigenchannel decomposition:
@    1 -3.85000  1.00000
                      1.00000
E-Ef(ev), T(x2 spins) =   -3.8500000   2.0000000
 Nchannels of the left tip =            1
        k1(2pi/a)    k2(2pi/a)       E-Ef (eV)
 
   0.3128880   0.0000000  -3.9500000
 to transmit
 T_ij for propagating states:
    1 -->     1   1.0000000
                 1.00000
 Eigenchannel decomposition:
@    1 -3.95000  1.00000
                      1.00000
E-Ef(ev), T(x2 spins) =   -3.9500000   2.0000000
 Nchannels of the left tip =            1
        k1(2pi/a)    k2(2pi/a)       E-Ef (eV)
 
   0.3061991   0.0000000  -4.0500000
 to transmit
 T_ij for propagating states:
    1 -->     1   1.0000000
                 1.00000
 Eigenchannel decomposition:
@    1 -4.05000  1.00000
                      1.00000
E-Ef(ev), T(x2 spins) =   -4.0500000   2.0000000
 Nchannels of the left tip =            1
        k1(2pi/a)    k2(2pi/a)       E-Ef (eV)
 
   0.2993889   0.0000000  -4.1500000
 to transmit
 T_ij for propagating states:
    1 -->     1   1.0000000
                 1.00000
 Eigenchannel decomposition:
@    1 -4.15000  1.00000
                      1.00000
E-Ef(ev), T(x2 spins) =   -4.1500000   2.0000000
 Nchannels of the left tip =            1
        k1(2pi/a)    k2(2pi/a)       E-Ef (eV)
 
   0.2924475   0.0000000  -4.2500000
 to transmit
 T_ij for propagating states:
    1 -->     1   1.0000000
                 1.00000
 Eigenchannel decomposition:
@    1 -4.25000  1.00000
                      1.00000
E-Ef(ev), T(x2 spins) =   -4.2500000   2.0000000
 Nchannels of the left tip =            1
        k1(2pi/a)    k2(2pi/a)       E-Ef (eV)
 
   0.2853641   0.0000000  -4.3500000
 to transmit
 T_ij for propagating states:
    1 -->     1   1.0000000
                 1.00000
 Eigenchannel decomposition:
@    1 -4.35000  1.00000
                      1.00000
E-Ef(ev), T(x2 spins) =   -4.3500000   2.0000000
 Nchannels of the left tip =            1
        k1(2pi/a)    k2(2pi/a)       E-Ef (eV)
 
   0.2781268   0.0000000  -4.4500000
 to transmit
 T_ij for propagating states:
    1 -->     1   1.0000000
                 1.00000
 Eigenchannel decomposition:
@    1 -4.45000  1.00000
                      1.00000
E-Ef(ev), T(x2 spins) =   -4.4500000   2.0000000
 Nchannels of the left tip =            1
        k1(2pi/a)    k2(2pi/a)       E-Ef (eV)
 
   0.2707222   0.0000000  -4.5500000
 to transmit
 T_ij for propagating states:
    1 -->     1   1.0000000
                 1.00000
 Eigenchannel decomposition:
@    1 -4.55000  1.00000
                      1.00000
E-Ef(ev), T(x2 spins) =   -4.5500000   2.0000000
 Nchannels of the left tip =            1
        k1(2pi/a)    k2(2pi/a)       E-Ef (eV)
 
   0.2631351   0.0000000  -4.6500000
 to transmit
 T_ij for propagating states:
    1 -->     1   1.0000000
                 1.00000
 Eigenchannel decomposition:
@    1 -4.65000  1.00000
                      1.00000
E-Ef(ev), T(x2 spins) =   -4.6500000   2.0000000
 Nchannels of the left tip =            1
        k1(2pi/a)    k2(2pi/a)       E-Ef (eV)
 
   0.2553484   0.0000000  -4.7500000
 to transmit
 T_ij for propagating states:
    1 -->     1   1.0000000
                 1.00000
 Eigenchannel decomposition:
@    1 -4.75000  1.00000
                      1.00000
E-Ef(ev), T(x2 spins) =   -4.7500000   2.0000000
 Nchannels of the left tip =            1
        k1(2pi/a)    k2(2pi/a)       E-Ef (eV)
 
   0.2473424   0.0000000  -4.8500000
 to transmit
 T_ij for propagating states:
    1 -->     1   1.0000000
                 1.00000
 Eigenchannel decomposition:
@    1 -4.85000  1.00000
                      1.00000
E-Ef(ev), T(x2 spins) =   -4.8500000   2.0000000
 Nchannels of the left tip =            1
        k1(2pi/a)    k2(2pi/a)       E-Ef (eV)
 
   0.2390942   0.0000000  -4.9500000
 to transmit
 T_ij for propagating states:
    1 -->     1   1.0000000
                 1.00000
 Eigenchannel decomposition:
@    1 -4.95000  1.00000
                      1.00000
E-Ef(ev), T(x2 spins) =   -4.9500000   2.0000000
 Nchannels of the left tip =            1
        k1(2pi/a)    k2(2pi/a)       E-Ef (eV)
 
   0.2305770   0.0000000  -5.0500000
 to transmit
 T_ij for propagating states:
    1 -->     1   1.0000000
                 1.00000
 Eigenchannel decomposition:
@    1 -5.05000  1.00000
                      1.00000
E-Ef(ev), T(x2 spins) =   -5.0500000   2.0000000
 Nchannels of the left tip =            1
        k1(2pi/a)    k2(2pi/a)       E-Ef (eV)
 
   0.2217592   0.0000000  -5.1500000
 to transmit
 T_ij for propagating states:
    1 -->     1   1.0000000
                 1.00000
 Eigenchannel decomposition:
@    1 -5.15000  1.00000
                      1.00000
E-Ef(ev), T(x2 spins) =   -5.1500000   2.0000000
 Nchannels of the left tip =            1
        k1(2pi/a)    k2(2pi/a)       E-Ef (eV)
 
   0.2126027   0.0000000  -5.2500000
 to transmit
 T_ij for propagating states:
    1 -->     1   1.0000000
                 1.00000
 Eigenchannel decomposition:
@    1 -5.25000  1.00000
                      1.00000
E-Ef(ev), T(x2 spins) =   -5.2500000   2.0000000
 Nchannels of the left tip =            1
        k1(2pi/a)    k2(2pi/a)       E-Ef (eV)
 
   0.2030608   0.0000000  -5.3500000
 to transmit
 T_ij for propagating states:
    1 -->     1   1.0000000
                 1.00000
 Eigenchannel decomposition:
@    1 -5.35000  1.00000
                      1.00000
E-Ef(ev), T(x2 spins) =   -5.3500000   2.0000000
 Nchannels of the left tip =            1
        k1(2pi/a)    k2(2pi/a)       E-Ef (eV)
 
   0.1930760   0.0000000  -5.4500000
 to transmit
 T_ij for propagating states:
    1 -->     1   1.0000000
                 1.00000
 Eigenchannel decomposition:
@    1 -5.45000  1.00000
                      1.00000
E-Ef(ev), T(x2 spins) =   -5.4500000   2.0000000
 Nchannels of the left tip =            1
        k1(2pi/a)    k2(2pi/a)       E-Ef (eV)
 
   0.1825748   0.0000000  -5.5500000
 to transmit
 T_ij for propagating states:
    1 -->     1   1.0000000
                 1.00000
 Eigenchannel decomposition:
@    1 -5.55000  1.00000
                      1.00000
E-Ef(ev), T(x2 spins) =   -5.5500000   2.0000000
 Nchannels of the left tip =            1
        k1(2pi/a)    k2(2pi/a)       E-Ef (eV)
 
   0.1714618   0.0000000  -5.6500000
 to transmit
 T_ij for propagating states:
    1 -->     1   1.0000000
                 1.00000
 Eigenchannel decomposition:
@    1 -5.65000  1.00000
                      1.00000
E-Ef(ev), T(x2 spins) =   -5.6500000   2.0000000
 Nchannels of the left tip =            1
        k1(2pi/a)    k2(2pi/a)       E-Ef (eV)
 
   0.1596086   0.0000000  -5.7500000
 to transmit
 T_ij for propagating states:
    1 -->     1   1.0000000
                 1.00000
 Eigenchannel decomposition:
@    1 -5.75000  1.00000
                      1.00000
E-Ef(ev), T(x2 spins) =   -5.7500000   2.0000000
 Nchannels of the left tip =            1
        k1(2pi/a)    k2(2pi/a)       E-Ef (eV)
 
   0.1468355   0.0000000  -5.8500000
 to transmit
 T_ij for propagating states:
    1 -->     1   1.0000000
                 1.00000
 Eigenchannel decomposition:
@    1 -5.85000  1.00000
                      1.00000
E-Ef(ev), T(x2 spins) =   -5.8500000   2.0000000
 Nchannels of the left tip =            1
        k1(2pi/a)    k2(2pi/a)       E-Ef (eV)
 
   0.1328768   0.0000000  -5.9500000
 to transmit
 T_ij for propagating states:
    1 -->     1   1.0000000
                 1.00000
 Eigenchannel decomposition:
@    1 -5.95000  1.00000
                      1.00000
E-Ef(ev), T(x2 spins) =   -5.9500000   2.0000000
 Nchannels of the left tip =            1
        k1(2pi/a)    k2(2pi/a)       E-Ef (eV)
 
   0.1173094   0.0000000  -6.0500000
 to transmit
 T_ij for propagating states:
    1 -->     1   1.0000000
                 1.00000
 Eigenchannel decomposition:
@    1 -6.05000  1.00000
                      1.00000
E-Ef(ev), T(x2 spins) =   -6.0500000   2.0000000
 Nchannels of the left tip =            1
        k1(2pi/a)    k2(2pi/a)       E-Ef (eV)
 
   0.0993794   0.0000000  -6.1500000
 to transmit
 T_ij for propagating states:
    1 -->     1   1.0000000
                 1.00000
 Eigenchannel decomposition:
@    1 -6.15000  1.00000
                      1.00000
E-Ef(ev), T(x2 spins) =   -6.1500000   2.0000000
 Nchannels of the left tip =            1
        k1(2pi/a)    k2(2pi/a)       E-Ef (eV)
 
   0.0774624   0.0000000  -6.2500000
 to transmit
 T_ij for propagating states:
    1 -->     1   1.0000000
                 1.00000
 Eigenchannel decomposition:
@    1 -6.25000  1.00000
                      1.00000
E-Ef(ev), T(x2 spins) =   -6.2500000   2.0000000
 Nchannels of the left tip =            1
        k1(2pi/a)    k2(2pi/a)       E-Ef (eV)
 
   0.0461936   0.0000000  -6.3500000
 to transmit
 T_ij for propagating states:
    1 -->     1   1.0000000
                 1.00000
 Eigenchannel decomposition:
@    1 -6.35000  1.00000
                      1.00000
E-Ef(ev), T(x2 spins) =   -6.3500000   2.0000000
 Nchannels of the left tip =            0
        k1(2pi/a)    k2(2pi/a)       E-Ef (eV)
 
 to transmit
          E-Ef(ev), T =   -6.4500000   0.0000000
 Nchannels of the left tip =            0
        k1(2pi/a)    k2(2pi/a)       E-Ef (eV)
 
 to transmit
          E-Ef(ev), T =   -6.5500000   0.0000000
 Nchannels of the left tip =            0
        k1(2pi/a)    k2(2pi/a)       E-Ef (eV)
 
 to transmit
          E-Ef(ev), T =   -6.6500000   0.0000000
 Nchannels of the left tip =            0
        k1(2pi/a)    k2(2pi/a)       E-Ef (eV)
 
 to transmit
          E-Ef(ev), T =   -6.7500000   0.0000000
 Nchannels of the left tip =            0
        k1(2pi/a)    k2(2pi/a)       E-Ef (eV)
 
 to transmit
          E-Ef(ev), T =   -6.8500000   0.0000000
 Nchannels of the left tip =            0
        k1(2pi/a)    k2(2pi/a)       E-Ef (eV)
 
 to transmit
          E-Ef(ev), T =   -6.9500000   0.0000000
 
     PWCOND       :    35.47s CPU time

     init         :     2.32s CPU
     poten        :     0.05s CPU (       2 calls,   0.025 s avg)
     local        :     4.96s CPU
 
     scatter_forw :    22.65s CPU (     200 calls,   0.113 s avg)
     integrals    :    13.85s CPU (     200 calls,   0.069 s avg)
     rotatef      :     2.34s CPU (    2800 calls,   0.001 s avg)
     rotateb      :     1.96s CPU (    2800 calls,   0.001 s avg)
     scatter_back :     3.71s CPU (     200 calls,   0.019 s avg)
 
     compbs       :     4.85s CPU (     100 calls,   0.048 s avg)
     compbs_2     :     4.30s CPU (     100 calls,   0.043 s avg)
 
