
     Program POST-PROC v.3.1    starts ...
     Today is  6May2006 at  3: 7:53 

     nbndx  =     6  nbnd   =     6  natomwfc =     9  npwx   =    1381
     nelec  =   3.00  nkb   =     4  ngl    =     905
 
===== INPUT FILE containing the left lead =====

     GEOMETRY:

     lattice parameter (a_0)   =      12.0000  a.u.
     the volume                =     648.0000 (a.u.)^3
     the cross section         =     144.0000 (a.u.)^2
     l of the unit cell        =       0.3750 (a_0)
     number of atoms/cell      =            1
     number of atomic types    =            1

     crystal axes: (cart. coord. in units of a_0)
               a(1) = (  1.0000  0.0000  0.0000 )  
               a(2) = (  0.0000  1.0000  0.0000 )  
               a(3) = (  0.0000  0.0000  0.3750 )  


   Cartesian axes

     site n.     atom                  positions (a_0 units)
          1           Al  tau(  1)=(  0.0000  0.0000  0.3750  )

     nr1s                      =           40
     nr2s                      =           40
     nr3s                      =           15
     nrx1s                     =           40
     nrx2s                     =           40
     nrx3s                     =           15
     nr1                       =           48
     nr2                       =           48
     nr3                       =           18
     nrx1                      =           48
     nrx2                      =           48
     nrx3                      =           18

 _______________________________
  Radii of nonlocal spheres: 

     type       ibeta     ang. mom.          radius (a_0 units)
          Al      1         0                    0.2260
          Al      2         1                    0.2561

     nbndx  =    12  nbnd   =    12  natomwfc =    46  npwx   =    6846
     nelec  =  16.00  nkb   =    20  ngl    =    5266
 
===== INPUT FILE containing the scat. region =====

     GEOMETRY:

     lattice parameter (a_0)   =      12.0000  a.u.
     the volume                =    3240.0000 (a.u.)^3
     the cross section         =     144.0000 (a.u.)^2
     l of the unit cell        =       1.8750 (a_0)
     number of atoms/cell      =            6
     number of atomic types    =            2

     crystal axes: (cart. coord. in units of a_0)
               a(1) = (  1.0000  0.0000  0.0000 )  
               a(2) = (  0.0000  1.0000  0.0000 )  
               a(3) = (  0.0000  0.0000  1.8750 )  


   Cartesian axes

     site n.     atom                  positions (a_0 units)
          1           Al  tau(  1)=(  0.0000  0.0000  1.8750  )
          2           Al  tau(  2)=(  0.0000  0.0000  0.3750  )
          3           Al  tau(  3)=( -0.0278  0.0000  0.7554  )
          4           H   tau(  4)=(  0.1927  0.0000  0.9375  )
          5           Al  tau(  5)=( -0.0278  0.0000  1.1196  )
          6           Al  tau(  6)=(  0.0000  0.0000  1.5000  )

     nr1s                      =           40
     nr2s                      =           40
     nr3s                      =           72
     nrx1s                     =           40
     nrx2s                     =           40
     nrx3s                     =           72
     nr1                       =           48
     nr2                       =           48
     nr3                       =           90
     nrx1                      =           48
     nrx2                      =           48
     nrx3                      =           90

 _______________________________
  Radii of nonlocal spheres: 

     type       ibeta     ang. mom.          radius (a_0 units)
          Al      1         0                    0.2260
          Al      2         1                    0.2561
----- General information -----
 
--- T calc. with identical leads (ikind=1) --- 

     nrx                       =           40
     nry                       =           40
     nz1                       =            1


     energy0               =         3.0E+00
     denergy               =         0.0E+00
     nenergy               =         18
     ecut2d                =         2.5E+01
     ewind                 =         1.0E+00
     epsproj               =         1.0E-03

----- Information about left/right lead -----

     nocros                   =            4
     noins                    =            0
     norb                     =            8
     norbf                    =           24
     nrz                      =           15

      iorb      type   ibeta   ang. mom.   m       position (a_0)
        1        1       1        0        1   taunew(   1)=(  0.0000  0.0000  0.0000)
        2        1       2        1        1   taunew(   2)=(  0.0000  0.0000  0.0000)
        3        1       2        1        2   taunew(   3)=(  0.0000  0.0000  0.0000)
        4        1       2        1        3   taunew(   4)=(  0.0000  0.0000  0.0000)
        5        1       1        0        1   taunew(   5)=(  0.0000  0.0000  0.3750)
        6        1       2        1        1   taunew(   6)=(  0.0000  0.0000  0.3750)
        7        1       2        1        2   taunew(   7)=(  0.0000  0.0000  0.3750)
        8        1       2        1        3   taunew(   8)=(  0.0000  0.0000  0.3750)
    k slab    z(k)  z(k+1)     crossing(iorb=1,norb)
    1   0.0000 0.0250 0.0250   11110000
    2   0.0250 0.0500 0.0250   11110000
    3   0.0500 0.0750 0.0250   11110000
    4   0.0750 0.1000 0.0250   11110000
    5   0.1000 0.1250 0.0250   11110111
    6   0.1250 0.1500 0.0250   11111111
    7   0.1500 0.1750 0.0250   11111111
    8   0.1750 0.2000 0.0250   11111111
    9   0.2000 0.2250 0.0250   11111111
   10   0.2250 0.2500 0.0250   11111111
   11   0.2500 0.2750 0.0250   01111111
   12   0.2750 0.3000 0.0250   00001111
   13   0.3000 0.3250 0.0250   00001111
   14   0.3250 0.3500 0.0250   00001111
   15   0.3500 0.3750 0.0250   00001111
----- Information about scattering region -----

     noins                    =           16
     norb                     =           24
     norbf                    =           24
     nrz                      =           73

      iorb      type   ibeta   ang. mom.   m       position (a_0)
        1        1       1        0        1   taunew(   1)=(  0.0000  0.0000  0.0000)
        2        1       2        1        1   taunew(   2)=(  0.0000  0.0000  0.0000)
        3        1       2        1        2   taunew(   3)=(  0.0000  0.0000  0.0000)
        4        1       2        1        3   taunew(   4)=(  0.0000  0.0000  0.0000)
        5        1       1        0        1   taunew(   5)=(  0.0000  0.0000  0.3750)
        6        1       2        1        1   taunew(   6)=(  0.0000  0.0000  0.3750)
        7        1       2        1        2   taunew(   7)=(  0.0000  0.0000  0.3750)
        8        1       2        1        3   taunew(   8)=(  0.0000  0.0000  0.3750)
        9        1       1        0        1   taunew(   9)=( -0.0278  0.0000  0.7554)
       10        1       2        1        1   taunew(  10)=( -0.0278  0.0000  0.7554)
       11        1       2        1        2   taunew(  11)=( -0.0278  0.0000  0.7554)
       12        1       2        1        3   taunew(  12)=( -0.0278  0.0000  0.7554)
       13        1       1        0        1   taunew(  13)=( -0.0278  0.0000  1.1196)
       14        1       2        1        1   taunew(  14)=( -0.0278  0.0000  1.1196)
       15        1       2        1        2   taunew(  15)=( -0.0278  0.0000  1.1196)
       16        1       2        1        3   taunew(  16)=( -0.0278  0.0000  1.1196)
       17        1       1        0        1   taunew(  17)=(  0.0000  0.0000  1.5000)
       18        1       2        1        1   taunew(  18)=(  0.0000  0.0000  1.5000)
       19        1       2        1        2   taunew(  19)=(  0.0000  0.0000  1.5000)
       20        1       2        1        3   taunew(  20)=(  0.0000  0.0000  1.5000)
       21        1       1        0        1   taunew(  21)=(  0.0000  0.0000  1.8750)
       22        1       2        1        1   taunew(  22)=(  0.0000  0.0000  1.8750)
       23        1       2        1        2   taunew(  23)=(  0.0000  0.0000  1.8750)
       24        1       2        1        3   taunew(  24)=(  0.0000  0.0000  1.8750)
    k slab    z(k)  z(k+1)     crossing(iorb=1,norb)
    1   0.0000 0.0257 0.0257   111100000000000000000000
    2   0.0257 0.0514 0.0257   111100000000000000000000
    3   0.0514 0.0771 0.0257   111100000000000000000000
    4   0.0771 0.1027 0.0257   111100000000000000000000
    5   0.1027 0.1284 0.0257   111101110000000000000000
    6   0.1284 0.1541 0.0257   111111110000000000000000
    7   0.1541 0.1798 0.0257   111111110000000000000000
    8   0.1798 0.2055 0.0257   111111110000000000000000
    9   0.2055 0.2312 0.0257   111111110000000000000000
   10   0.2312 0.2568 0.0257   011111110000000000000000
   11   0.2568 0.2825 0.0257   000011110000000000000000
   12   0.2825 0.3082 0.0257   000011110000000000000000
   13   0.3082 0.3339 0.0257   000011110000000000000000
   14   0.3339 0.3596 0.0257   000011110000000000000000
   15   0.3596 0.3853 0.0257   000011110000000000000000
   16   0.3853 0.4110 0.0257   000011110000000000000000
   17   0.4110 0.4366 0.0257   000011110000000000000000
   18   0.4366 0.4623 0.0257   000011110000000000000000
   19   0.4623 0.4880 0.0257   000011110000000000000000
   20   0.4880 0.5137 0.0257   000011110111000000000000
   21   0.5137 0.5394 0.0257   000011111111000000000000
   22   0.5394 0.5651 0.0257   000011111111000000000000
   23   0.5651 0.5908 0.0257   000011111111000000000000
   24   0.5908 0.6164 0.0257   000011111111000000000000
   25   0.6164 0.6421 0.0257   000001111111000000000000
   26   0.6421 0.6678 0.0257   000000001111000000000000
   27   0.6678 0.6935 0.0257   000000001111000000000000
   28   0.6935 0.7192 0.0257   000000001111000000000000
   29   0.7192 0.7449 0.0257   000000001111000000000000
   30   0.7449 0.7705 0.0257   000000001111000000000000
   31   0.7705 0.7962 0.0257   000000001111000000000000
   32   0.7962 0.8219 0.0257   000000001111000000000000
   33   0.8219 0.8476 0.0257   000000001111000000000000
   34   0.8476 0.8733 0.0257   000000001111011100000000
   35   0.8733 0.8990 0.0257   000000001111111100000000
   36   0.8990 0.9247 0.0257   000000001111111100000000
   37   0.9247 0.9503 0.0257   000000001111111100000000
   38   0.9503 0.9760 0.0257   000000001111111100000000
   39   0.9760 1.0017 0.0257   000000001111111100000000
   40   1.0017 1.0274 0.0257   000000000111111100000000
   41   1.0274 1.0531 0.0257   000000000000111100000000
   42   1.0531 1.0788 0.0257   000000000000111100000000
   43   1.0788 1.1045 0.0257   000000000000111100000000
   44   1.1045 1.1301 0.0257   000000000000111100000000
   45   1.1301 1.1558 0.0257   000000000000111100000000
   46   1.1558 1.1815 0.0257   000000000000111100000000
   47   1.1815 1.2072 0.0257   000000000000111100000000
   48   1.2072 1.2329 0.0257   000000000000111100000000
   49   1.2329 1.2586 0.0257   000000000000111101110000
   50   1.2586 1.2842 0.0257   000000000000111111110000
   51   1.2842 1.3099 0.0257   000000000000111111110000
   52   1.3099 1.3356 0.0257   000000000000111111110000
   53   1.3356 1.3613 0.0257   000000000000111111110000
   54   1.3613 1.3870 0.0257   000000000000011111110000
   55   1.3870 1.4127 0.0257   000000000000000011110000
   56   1.4127 1.4384 0.0257   000000000000000011110000
   57   1.4384 1.4640 0.0257   000000000000000011110000
   58   1.4640 1.4897 0.0257   000000000000000011110000
   59   1.4897 1.5154 0.0257   000000000000000011110000
   60   1.5154 1.5411 0.0257   000000000000000011110000
   61   1.5411 1.5668 0.0257   000000000000000011110000
   62   1.5668 1.5925 0.0257   000000000000000011110000
   63   1.5925 1.6182 0.0257   000000000000000011110000
   64   1.6182 1.6438 0.0257   000000000000000011110111
   65   1.6438 1.6695 0.0257   000000000000000011111111
   66   1.6695 1.6952 0.0257   000000000000000011111111
   67   1.6952 1.7209 0.0257   000000000000000011111111
   68   1.7209 1.7466 0.0257   000000000000000011111111
   69   1.7466 1.7723 0.0257   000000000000000001111111
   70   1.7723 1.7979 0.0257   000000000000000000001111
   71   1.7979 1.8236 0.0257   000000000000000000001111
   72   1.8236 1.8493 0.0257   000000000000000000001111
   73   1.8493 1.8750 0.0257   000000000000000000001111
 ngper, shell number =          293          41
 ngper, n2d =          293          39
 Nchannels of the left tip =            4
        k1(2pi/a)    k2(2pi/a)       E-Ef (eV)
 
   0.1235515   0.0000000   3.0000000
   0.3631289   0.0000000   3.0000000
   0.3631289   0.0000000   3.0000000
  -0.3805260   0.0000000   3.0000000
 to transmit
 T_ij for propagating states:
    1 -->     1   0.9320800
    1 -->     2   0.0084839
    1 -->     3   0.0000016
    1 -->     4   0.0003038
                 0.94087
    2 -->     1   0.0084839
    2 -->     2   0.5450166
    2 -->     3   0.0000631
    2 -->     4   0.0074802
                 0.56104
    3 -->     1   0.0000016
    3 -->     2   0.0000631
    3 -->     3   0.9855393
    3 -->     4   0.0000014
                 0.98561
    4 -->     1   0.0003038
    4 -->     2   0.0074802
    4 -->     3   0.0000014
    4 -->     4   0.9832917
                 0.99108
 Eigenchannel decomposition:
@    1  3.00000  0.50235
                      0.10850
                      0.88096
                      0.00016
                      0.01038
@    2  3.00000  0.98568
                      0.00000
                      0.00018
                      0.99982
                      0.00000
@    3  3.00000  0.99325
                      0.67496
                      0.05592
                      0.00001
                      0.26910
@    4  3.00000  0.99730
                      0.21654
                      0.06293
                      0.00001
                      0.72052
E-Ef(ev), T(x2 spins) =    3.0000000   6.9571910
 Nchannels of the left tip =            4
        k1(2pi/a)    k2(2pi/a)       E-Ef (eV)
 
   0.0567169   0.0000000   2.7000000
   0.3456142   0.0000000   2.7000000
   0.3456142   0.0000000   2.7000000
  -0.3935983   0.0000000   2.7000000
 to transmit
 T_ij for propagating states:
    1 -->     1   0.7755139
    1 -->     2   0.0119869
    1 -->     3   0.0000058
    1 -->     4   0.0001584
                 0.78766
    2 -->     1   0.0119869
    2 -->     2   0.5558349
    2 -->     3   0.0001477
    2 -->     4   0.0061312
                 0.57410
    3 -->     1   0.0000058
    3 -->     2   0.0001477
    3 -->     3   0.9799234
    3 -->     4   0.0000030
                 0.98008
    4 -->     1   0.0001584
    4 -->     2   0.0061312
    4 -->     3   0.0000030
    4 -->     4   0.9879856
                 0.99428
 Eigenchannel decomposition:
@    1  2.70000  0.47826
                      0.22850
                      0.76375
                      0.00037
                      0.00738
@    2  2.70000  0.87929
                      0.77142
                      0.22697
                      0.00011
                      0.00151
@    3  2.70000  0.98028
                      0.00000
                      0.00049
                      0.99951
                      0.00000
@    4  2.70000  0.99830
                      0.00009
                      0.00880
                      0.00000
                      0.99111
E-Ef(ev), T(x2 spins) =    2.7000000   6.6722475
 Nchannels of the left tip =            3
        k1(2pi/a)    k2(2pi/a)       E-Ef (eV)
 
   0.3334343   0.0000000   2.5000000
   0.3334343   0.0000000   2.5000000
  -0.4023545   0.0000000   2.5000000
 to transmit
 T_ij for propagating states:
    1 -->     1   0.5226197
    1 -->     2   0.0005342
    1 -->     3   0.0060559
                 0.52921
    2 -->     1   0.0005342
    2 -->     2   0.9753851
    2 -->     3   0.0000098
                 0.97593
    3 -->     1   0.0060559
    3 -->     2   0.0000098
    3 -->     3   0.9891030
                 0.99517
 Eigenchannel decomposition:
@    1  2.50000  0.52445
                      0.98989
                      0.00160
                      0.00851
@    2  2.50000  0.97665
                      0.00161
                      0.99839
                      0.00000
@    3  2.50000  0.99921
                      0.00850
                      0.00001
                      0.99149
E-Ef(ev), T(x2 spins) =    2.5000000   5.0006151
 Nchannels of the left tip =            3
        k1(2pi/a)    k2(2pi/a)       E-Ef (eV)
 
   0.2718950   0.0000000   1.6000000
   0.2720007   0.0000000   1.6000000
  -0.4444339   0.0000000   1.6000000
 to transmit
 T_ij for propagating states:
    1 -->     1   0.4536766
    1 -->     2   0.0000215
    1 -->     3   0.0031846
                 0.45688
    2 -->     1   0.0000215
    2 -->     2   0.9722350
    2 -->     3   0.0000002
                 0.97226
    3 -->     1   0.0031846
    3 -->     2   0.0000002
    3 -->     3   0.9884476
                 0.99163
 Eigenchannel decomposition:
@    1  1.60000  0.45256
                      0.99204
                      0.00006
                      0.00790
@    2  1.60000  0.97229
                      0.00006
                      0.99994
                      0.00000
@    3  1.60000  0.99593
                      0.00790
                      0.00000
                      0.99210
E-Ef(ev), T(x2 spins) =    1.6000000   4.8415436
 Nchannels of the left tip =            3
        k1(2pi/a)    k2(2pi/a)       E-Ef (eV)
 
   0.2216721   0.0000000   1.0000000
   0.2218015   0.0000000   1.0000000
  -0.4868341   0.0000000   1.0000000
 to transmit
 T_ij for propagating states:
    1 -->     1   0.4173869
    1 -->     2   0.0000020
    1 -->     3   0.0006282
                 0.41802
    2 -->     1   0.0000020
    2 -->     2   0.9896195
    2 -->     3   0.0000000
                 0.98962
    3 -->     1   0.0006282
    3 -->     2   0.0000000
    3 -->     3   0.8094895
                 0.81012
 Eigenchannel decomposition:
@    1  1.00000  0.41546
                      0.99357
                      0.00000
                      0.00642
@    2  1.00000  0.81267
                      0.00642
                      0.00000
                      0.99358
@    3  1.00000  0.98962
                      0.00000
                      1.00000
                      0.00000
E-Ef(ev), T(x2 spins) =    1.0000000   4.4355127
 Nchannels of the left tip =            2
        k1(2pi/a)    k2(2pi/a)       E-Ef (eV)
 
   0.2121486   0.0000000   0.9000000
   0.2122837   0.0000000   0.9000000
 to transmit
 T_ij for propagating states:
    1 -->     1   0.4274084
    1 -->     2   0.0000013
                 0.42741
    2 -->     1   0.0000013
    2 -->     2   0.9929377
                 0.99294
 Eigenchannel decomposition:
@    1  0.90000  0.42741
                      1.00000
                      0.00000
@    2  0.90000  0.99294
                      0.00000
                      1.00000
E-Ef(ev), T(x2 spins) =    0.9000000   2.8406974
 Nchannels of the left tip =            2
        k1(2pi/a)    k2(2pi/a)       E-Ef (eV)
 
   0.1093193   0.0000000   0.1000000
   0.1095807   0.0000000   0.1000000
 to transmit
 T_ij for propagating states:
    1 -->     1   0.2024956
    1 -->     2   0.0000000
                 0.20250
    2 -->     1   0.0000000
    2 -->     2   0.9991323
                 0.99913
 Eigenchannel decomposition:
@    1  0.10000  0.20250
                      1.00000
                      0.00000
@    2  0.10000  0.99913
                      0.00000
                      1.00000
E-Ef(ev), T(x2 spins) =    0.1000000   2.4032560
 Nchannels of the left tip =            2
        k1(2pi/a)    k2(2pi/a)       E-Ef (eV)
 
   0.0607036   0.0000000  -0.1000000
   0.0611730   0.0000000  -0.1000000
 to transmit
 T_ij for propagating states:
    1 -->     1   0.0598776
    1 -->     2   0.0000000
                 0.05988
    2 -->     1   0.0000000
    2 -->     2   0.8954271
                 0.89543
 Eigenchannel decomposition:
@    1 -0.10000  0.05988
                      1.00000
                      0.00000
@    2 -0.10000  0.89543
                      0.00000
                      1.00000
E-Ef(ev), T(x2 spins) =   -0.1000000   1.9106094
 Nchannels of the left tip =            0
        k1(2pi/a)    k2(2pi/a)       E-Ef (eV)
 
 to transmit
          E-Ef(ev), T =   -0.2500000   0.0000000
 Nchannels of the left tip =            0
        k1(2pi/a)    k2(2pi/a)       E-Ef (eV)
 
 to transmit
          E-Ef(ev), T =   -1.1500000   0.0000000
 Nchannels of the left tip =            1
        k1(2pi/a)    k2(2pi/a)       E-Ef (eV)
 
   0.4662804   0.0000000  -1.4500000
 to transmit
 T_ij for propagating states:
    1 -->     1   0.1437547
                 0.14375
 Eigenchannel decomposition:
@    1 -1.45000  0.14375
                      1.00000
E-Ef(ev), T(x2 spins) =   -1.4500000   0.2875094
 Nchannels of the left tip =            1
        k1(2pi/a)    k2(2pi/a)       E-Ef (eV)
 
   0.4360931   0.0000000  -1.9000000
 to transmit
 T_ij for propagating states:
    1 -->     1   0.0000155
                 0.00002
 Eigenchannel decomposition:
@    1 -1.90000  0.00002
                      1.00000
E-Ef(ev), T(x2 spins) =   -1.9000000   0.0000310
 Nchannels of the left tip =            1
        k1(2pi/a)    k2(2pi/a)       E-Ef (eV)
 
   0.3720464   0.0000000  -3.0000000
 to transmit
 T_ij for propagating states:
    1 -->     1   0.4239821
                 0.42398
 Eigenchannel decomposition:
@    1 -3.00000  0.42398
                      1.00000
E-Ef(ev), T(x2 spins) =   -3.0000000   0.8479641
 Nchannels of the left tip =            1
        k1(2pi/a)    k2(2pi/a)       E-Ef (eV)
 
   0.3097402   0.0000000  -4.0000000
 to transmit
 T_ij for propagating states:
    1 -->     1   0.5183499
                 0.51835
 Eigenchannel decomposition:
@    1 -4.00000  0.51835
                      1.00000
E-Ef(ev), T(x2 spins) =   -4.0000000   1.0366997
 Nchannels of the left tip =            1
        k1(2pi/a)    k2(2pi/a)       E-Ef (eV)
 
   0.2351026   0.0000000  -5.0000000
 to transmit
 T_ij for propagating states:
    1 -->     1   0.5068506
                 0.50685
 Eigenchannel decomposition:
@    1 -5.00000  0.50685
                      1.00000
E-Ef(ev), T(x2 spins) =   -5.0000000   1.0137011
 Nchannels of the left tip =            1
        k1(2pi/a)    k2(2pi/a)       E-Ef (eV)
 
   0.1257512   0.0000000  -6.0000000
 to transmit
 T_ij for propagating states:
    1 -->     1   0.3684120
                 0.36841
 Eigenchannel decomposition:
@    1 -6.00000  0.36841
                      1.00000
E-Ef(ev), T(x2 spins) =   -6.0000000   0.7368240
 Nchannels of the left tip =            1
        k1(2pi/a)    k2(2pi/a)       E-Ef (eV)
 
   0.0896787   0.0000000  -6.2000000
 to transmit
 T_ij for propagating states:
    1 -->     1   0.2372850
                 0.23729
 Eigenchannel decomposition:
@    1 -6.20000  0.23729
                      1.00000
E-Ef(ev), T(x2 spins) =   -6.2000000   0.4745701
 Nchannels of the left tip =            0
        k1(2pi/a)    k2(2pi/a)       E-Ef (eV)
 
 to transmit
          E-Ef(ev), T =   -6.4500000   0.0000000
 
     PWCOND       :    35.10s CPU time

     init         :     1.47s CPU
     poten        :     0.19s CPU (       2 calls,   0.095 s avg)
     local        :    12.80s CPU
 
     scatter_forw :    19.06s CPU (      36 calls,   0.529 s avg)
     integrals    :     9.11s CPU (      36 calls,   0.253 s avg)
     rotatef      :     2.93s CPU (    1548 calls,   0.002 s avg)
     rotateb      :     2.37s CPU (    1548 calls,   0.002 s avg)
     scatter_back :     4.19s CPU (      36 calls,   0.116 s avg)
 
     compbs       :     1.49s CPU (      18 calls,   0.083 s avg)
     compbs_2     :     1.32s CPU (      18 calls,   0.073 s avg)
 
