
     Program PROJWFC v.6.0 (svn rev. 13286) starts on  7Feb2017 at 15:35:55 

     This program is part of the open-source Quantum ESPRESSO suite
     for quantum simulation of materials; please cite
         "P. Giannozzi et al., J. Phys.:Condens. Matter 21 395502 (2009);
          URL http://www.quantum-espresso.org", 
     in publications or presentations arising from this work. More details at
     http://www.quantum-espresso.org/quote

     Parallel version (MPI), running on     2 processors
     R & G space division:  proc/nbgrp/npool/nimage =       2

     Reading data from directory:
     /home/pietro/espresso-svn/tempdir/AlAs110.save

   Info: using nr1, nr2, nr3 values from input

   Info: using nr1, nr2, nr3 values from input

     IMPORTANT: XC functional enforced from input :
     Exchange-correlation      =  SLA  PZ   NOGX NOGC ( 1  1  0  0 0 0)
     Any further DFT definition will be discarded
     Please, verify this is what you really want


     Parallelization info
     --------------------
     sticks:   dense  smooth     PW     G-vecs:    dense   smooth      PW
     Min         174     174     54                12296    12296    2232
     Max         175     175     55                12311    12311    2237
     Sum         349     349    109                24607    24607    4469


     Gaussian broadening (read from input): ngauss,degauss=   0    0.010000


     Calling projwave_boxes .... 

     Box #  1 : vol   0.055556 % =       1.929375 (a.u.)^3;  0.129807E-01 elec
     Box #  2 : vol   0.055556 % =       1.929375 (a.u.)^3;  0.146365E-02 elec
     Box #  3 : vol   0.055556 % =       1.929375 (a.u.)^3;  0.224744E-03 elec
     Box #  4 : vol   0.222222 % =       7.717500 (a.u.)^3;  0.267744E-01 elec
     Box #  5 : vol   0.055556 % =       1.929375 (a.u.)^3;  0.283967E-04 elec
     Box #  6 : vol   0.055556 % =       1.929375 (a.u.)^3;  0.772767E-05 elec
     Box #  7 : vol   0.055556 % =       1.929375 (a.u.)^3;  0.454268E-05 elec
     Box #  8 : vol   0.222222 % =       7.717500 (a.u.)^3;  0.813014E-04 elec

     PROJWFC      :     0.87s CPU         0.89s WALL


   This run was terminated on:  15:35:56   7Feb2017            

=------------------------------------------------------------------------------=
   JOB DONE.
=------------------------------------------------------------------------------=
