<UPF version="2.0.1">
  <PP_INFO>

 This pseudopotential file has been produced using the code
 ONCVPSP  (Optimized Norm-Conservinng Vanderbilt PSeudopotential)
 scalar-relativistic version 2.1.1, 03/26/2014 by D. R. Hamann
 The code is available through a link at URL www.mat-simresearch.com.
 Documentation with the package provides a full discription of the
 input data below.


 While it is not required under the terms of the GNU GPL, it is
 suggested that you cite D. R. Hamann, Phys. Rev. B 88, 085117 (2013)
 in any publication using these pseudopotentials.


 Copyright 2015 The Regents of the University of California
 
 This work is licensed under the Creative Commons Attribution-ShareAlike 
 4.0 International License. To view a copy of this license, visit 
 http://creativecommons.org/licenses/by-sa/4.0/ or send a letter to 
 Creative Commons, PO Box 1866, Mountain View, CA 94042, USA.
 
 This pseudopotential is part of the Schlipf-Gygi norm-conserving 
 pseudopotential library. Its construction parameters were tuned to 
 reproduce materials of a training set with very high accuracy and 
 should be suitable as a general purpose pseudopotential to treat a 
 variety of different compounds. For details of the construction and 
 testing of the pseudopotential please refer to:
 
 [insert reference to paper here]
 
 We kindly ask that you include this reference in all publications 
 associated to this pseudopotential.


    <PP_INPUTFILE>
# ATOM AND REFERENCE CONFIGURATION
# atsym  z    nc    nv    iexc   psfile
  Ag 47.00     6     4     4      upf
#
#   n    l    f        energy (Ha)
    1    0    2.00
    2    0    2.00
    2    1    6.00
    3    0    2.00
    3    1    6.00
    3    2   10.00
    4    0    2.00
    4    1    6.00
    5    0    2.00
    4    2    9.00
#
# PSEUDOPOTENTIAL AND OPTIMIZATION
# lmax
    2
#
#   l,   rc,     ep,   ncon, nbas, qcut
    0   2.66052  -3.64546    5    8   5.98964
    1   2.56699  -2.29873    5    8   6.43182
    2   2.47676  -0.39359    5    8   7.30643
#
# LOCAL POTENTIAL
# lloc, lpopt,  rc(5),   dvloc0
    4    5   1.53696      0.00000
#
# VANDERBILT-KLEINMAN-BYLANDER PROJECTORs
# l, nproj, debl
    0    2   3.44141
    1    2   2.25356
    2    2   1.49541
#
# MODEL CORE CHARGE
# icmod, fcfact
    0   0.00000
#
# LOG DERIVATIVE ANALYSIS
# epsh1, epsh2, depsh
   -5.00    3.00    0.02
#
# OUTPUT GRID
# rlmax, drl
    6.00    0.01
#
# TEST CONFIGURATIONS
# ncnf
    0
# nvcnf
#   n    l    f
    </PP_INPUTFILE>
  </PP_INFO>
  <!--                               -->
  <!-- END OF HUMAN READABLE SECTION -->
  <!--                               -->
    <PP_HEADER
       generated="Generated using ONCVPSP code by D. R. Hamann"
       author="Martin Schlipf and Francois Gygi"
       date="150105"
       comment=""
       element="Ag"
       pseudo_type="NC"
       relativistic="scalar"
       is_ultrasoft="F"
       is_paw="F"
       is_coulomb="F"
       has_so="F"
       has_wfc="F"
       has_gipaw="F"
       core_correction="F"
       functional="PBE"
       z_valence="   19.00"
       total_psenergy="  -1.43571000352E+02"
       rho_cutoff="   6.01000000000E+00"
       l_max="2"
       l_local="-1"
       mesh_size="   602"
       number_of_wfc="0"
       number_of_proj="6"/>
 <PP_MESH>
   <PP_R type="real"  size=" 602" columns="8">
    0.0000    0.0100    0.0200    0.0300    0.0400    0.0500    0.0600    0.0700
    0.0800    0.0900    0.1000    0.1100    0.1200    0.1300    0.1400    0.1500
    0.1600    0.1700    0.1800    0.1900    0.2000    0.2100    0.2200    0.2300
    0.2400    0.2500    0.2600    0.2700    0.2800    0.2900    0.3000    0.3100
    0.3200    0.3300    0.3400    0.3500    0.3600    0.3700    0.3800    0.3900
    0.4000    0.4100    0.4200    0.4300    0.4400    0.4500    0.4600    0.4700
    0.4800    0.4900    0.5000    0.5100    0.5200    0.5300    0.5400    0.5500
    0.5600    0.5700    0.5800    0.5900    0.6000    0.6100    0.6200    0.6300
    0.6400    0.6500    0.6600    0.6700    0.6800    0.6900    0.7000    0.7100
    0.7200    0.7300    0.7400    0.7500    0.7600    0.7700    0.7800    0.7900
    0.8000    0.8100    0.8200    0.8300    0.8400    0.8500    0.8600    0.8700
    0.8800    0.8900    0.9000    0.9100    0.9200    0.9300    0.9400    0.9500
    0.9600    0.9700    0.9800    0.9900    1.0000    1.0100    1.0200    1.0300
    1.0400    1.0500    1.0600    1.0700    1.0800    1.0900    1.1000    1.1100
    1.1200    1.1300    1.1400    1.1500    1.1600    1.1700    1.1800    1.1900
    1.2000    1.2100    1.2200    1.2300    1.2400    1.2500    1.2600    1.2700
    1.2800    1.2900    1.3000    1.3100    1.3200    1.3300    1.3400    1.3500
    1.3600    1.3700    1.3800    1.3900    1.4000    1.4100    1.4200    1.4300
    1.4400    1.4500    1.4600    1.4700    1.4800    1.4900    1.5000    1.5100
    1.5200    1.5300    1.5400    1.5500    1.5600    1.5700    1.5800    1.5900
    1.6000    1.6100    1.6200    1.6300    1.6400    1.6500    1.6600    1.6700
    1.6800    1.6900    1.7000    1.7100    1.7200    1.7300    1.7400    1.7500
    1.7600    1.7700    1.7800    1.7900    1.8000    1.8100    1.8200    1.8300
    1.8400    1.8500    1.8600    1.8700    1.8800    1.8900    1.9000    1.9100
    1.9200    1.9300    1.9400    1.9500    1.9600    1.9700    1.9800    1.9900
    2.0000    2.0100    2.0200    2.0300    2.0400    2.0500    2.0600    2.0700
    2.0800    2.0900    2.1000    2.1100    2.1200    2.1300    2.1400    2.1500
    2.1600    2.1700    2.1800    2.1900    2.2000    2.2100    2.2200    2.2300
    2.2400    2.2500    2.2600    2.2700    2.2800    2.2900    2.3000    2.3100
    2.3200    2.3300    2.3400    2.3500    2.3600    2.3700    2.3800    2.3900
    2.4000    2.4100    2.4200    2.4300    2.4400    2.4500    2.4600    2.4700
    2.4800    2.4900    2.5000    2.5100    2.5200    2.5300    2.5400    2.5500
    2.5600    2.5700    2.5800    2.5900    2.6000    2.6100    2.6200    2.6300
    2.6400    2.6500    2.6600    2.6700    2.6800    2.6900    2.7000    2.7100
    2.7200    2.7300    2.7400    2.7500    2.7600    2.7700    2.7800    2.7900
    2.8000    2.8100    2.8200    2.8300    2.8400    2.8500    2.8600    2.8700
    2.8800    2.8900    2.9000    2.9100    2.9200    2.9300    2.9400    2.9500
    2.9600    2.9700    2.9800    2.9900    3.0000    3.0100    3.0200    3.0300
    3.0400    3.0500    3.0600    3.0700    3.0800    3.0900    3.1000    3.1100
    3.1200    3.1300    3.1400    3.1500    3.1600    3.1700    3.1800    3.1900
    3.2000    3.2100    3.2200    3.2300    3.2400    3.2500    3.2600    3.2700
    3.2800    3.2900    3.3000    3.3100    3.3200    3.3300    3.3400    3.3500
    3.3600    3.3700    3.3800    3.3900    3.4000    3.4100    3.4200    3.4300
    3.4400    3.4500    3.4600    3.4700    3.4800    3.4900    3.5000    3.5100
    3.5200    3.5300    3.5400    3.5500    3.5600    3.5700    3.5800    3.5900
    3.6000    3.6100    3.6200    3.6300    3.6400    3.6500    3.6600    3.6700
    3.6800    3.6900    3.7000    3.7100    3.7200    3.7300    3.7400    3.7500
    3.7600    3.7700    3.7800    3.7900    3.8000    3.8100    3.8200    3.8300
    3.8400    3.8500    3.8600    3.8700    3.8800    3.8900    3.9000    3.9100
    3.9200    3.9300    3.9400    3.9500    3.9600    3.9700    3.9800    3.9900
    4.0000    4.0100    4.0200    4.0300    4.0400    4.0500    4.0600    4.0700
    4.0800    4.0900    4.1000    4.1100    4.1200    4.1300    4.1400    4.1500
    4.1600    4.1700    4.1800    4.1900    4.2000    4.2100    4.2200    4.2300
    4.2400    4.2500    4.2600    4.2700    4.2800    4.2900    4.3000    4.3100
    4.3200    4.3300    4.3400    4.3500    4.3600    4.3700    4.3800    4.3900
    4.4000    4.4100    4.4200    4.4300    4.4400    4.4500    4.4600    4.4700
    4.4800    4.4900    4.5000    4.5100    4.5200    4.5300    4.5400    4.5500
    4.5600    4.5700    4.5800    4.5900    4.6000    4.6100    4.6200    4.6300
    4.6400    4.6500    4.6600    4.6700    4.6800    4.6900    4.7000    4.7100
    4.7200    4.7300    4.7400    4.7500    4.7600    4.7700    4.7800    4.7900
    4.8000    4.8100    4.8200    4.8300    4.8400    4.8500    4.8600    4.8700
    4.8800    4.8900    4.9000    4.9100    4.9200    4.9300    4.9400    4.9500
    4.9600    4.9700    4.9800    4.9900    5.0000    5.0100    5.0200    5.0300
    5.0400    5.0500    5.0600    5.0700    5.0800    5.0900    5.1000    5.1100
    5.1200    5.1300    5.1400    5.1500    5.1600    5.1700    5.1800    5.1900
    5.2000    5.2100    5.2200    5.2300    5.2400    5.2500    5.2600    5.2700
    5.2800    5.2900    5.3000    5.3100    5.3200    5.3300    5.3400    5.3500
    5.3600    5.3700    5.3800    5.3900    5.4000    5.4100    5.4200    5.4300
    5.4400    5.4500    5.4600    5.4700    5.4800    5.4900    5.5000    5.5100
    5.5200    5.5300    5.5400    5.5500    5.5600    5.5700    5.5800    5.5900
    5.6000    5.6100    5.6200    5.6300    5.6400    5.6500    5.6600    5.6700
    5.6800    5.6900    5.7000    5.7100    5.7200    5.7300    5.7400    5.7500
    5.7600    5.7700    5.7800    5.7900    5.8000    5.8100    5.8200    5.8300
    5.8400    5.8500    5.8600    5.8700    5.8800    5.8900    5.9000    5.9100
    5.9200    5.9300    5.9400    5.9500    5.9600    5.9700    5.9800    5.9900
    6.0000    6.0100
   </PP_R>
   <PP_RAB type="real"  size=" 602" columns="8">
    0.0100    0.0100    0.0100    0.0100    0.0100    0.0100    0.0100    0.0100
    0.0100    0.0100    0.0100    0.0100    0.0100    0.0100    0.0100    0.0100
    0.0100    0.0100    0.0100    0.0100    0.0100    0.0100    0.0100    0.0100
    0.0100    0.0100    0.0100    0.0100    0.0100    0.0100    0.0100    0.0100
    0.0100    0.0100    0.0100    0.0100    0.0100    0.0100    0.0100    0.0100
    0.0100    0.0100    0.0100    0.0100    0.0100    0.0100    0.0100    0.0100
    0.0100    0.0100    0.0100    0.0100    0.0100    0.0100    0.0100    0.0100
    0.0100    0.0100    0.0100    0.0100    0.0100    0.0100    0.0100    0.0100
    0.0100    0.0100    0.0100    0.0100    0.0100    0.0100    0.0100    0.0100
    0.0100    0.0100    0.0100    0.0100    0.0100    0.0100    0.0100    0.0100
    0.0100    0.0100    0.0100    0.0100    0.0100    0.0100    0.0100    0.0100
    0.0100    0.0100    0.0100    0.0100    0.0100    0.0100    0.0100    0.0100
    0.0100    0.0100    0.0100    0.0100    0.0100    0.0100    0.0100    0.0100
    0.0100    0.0100    0.0100    0.0100    0.0100    0.0100    0.0100    0.0100
    0.0100    0.0100    0.0100    0.0100    0.0100    0.0100    0.0100    0.0100
    0.0100    0.0100    0.0100    0.0100    0.0100    0.0100    0.0100    0.0100
    0.0100    0.0100    0.0100    0.0100    0.0100    0.0100    0.0100    0.0100
    0.0100    0.0100    0.0100    0.0100    0.0100    0.0100    0.0100    0.0100
    0.0100    0.0100    0.0100    0.0100    0.0100    0.0100    0.0100    0.0100
    0.0100    0.0100    0.0100    0.0100    0.0100    0.0100    0.0100    0.0100
    0.0100    0.0100    0.0100    0.0100    0.0100    0.0100    0.0100    0.0100
    0.0100    0.0100    0.0100    0.0100    0.0100    0.0100    0.0100    0.0100
    0.0100    0.0100    0.0100    0.0100    0.0100    0.0100    0.0100    0.0100
    0.0100    0.0100    0.0100    0.0100    0.0100    0.0100    0.0100    0.0100
    0.0100    0.0100    0.0100    0.0100    0.0100    0.0100    0.0100    0.0100
    0.0100    0.0100    0.0100    0.0100    0.0100    0.0100    0.0100    0.0100
    0.0100    0.0100    0.0100    0.0100    0.0100    0.0100    0.0100    0.0100
    0.0100    0.0100    0.0100    0.0100    0.0100    0.0100    0.0100    0.0100
    0.0100    0.0100    0.0100    0.0100    0.0100    0.0100    0.0100    0.0100
    0.0100    0.0100    0.0100    0.0100    0.0100    0.0100    0.0100    0.0100
    0.0100    0.0100    0.0100    0.0100    0.0100    0.0100    0.0100    0.0100
    0.0100    0.0100    0.0100    0.0100    0.0100    0.0100    0.0100    0.0100
    0.0100    0.0100    0.0100    0.0100    0.0100    0.0100    0.0100    0.0100
    0.0100    0.0100    0.0100    0.0100    0.0100    0.0100    0.0100    0.0100
    0.0100    0.0100    0.0100    0.0100    0.0100    0.0100    0.0100    0.0100
    0.0100    0.0100    0.0100    0.0100    0.0100    0.0100    0.0100    0.0100
    0.0100    0.0100    0.0100    0.0100    0.0100    0.0100    0.0100    0.0100
    0.0100    0.0100    0.0100    0.0100    0.0100    0.0100    0.0100    0.0100
    0.0100    0.0100    0.0100    0.0100    0.0100    0.0100    0.0100    0.0100
    0.0100    0.0100    0.0100    0.0100    0.0100    0.0100    0.0100    0.0100
    0.0100    0.0100    0.0100    0.0100    0.0100    0.0100    0.0100    0.0100
    0.0100    0.0100    0.0100    0.0100    0.0100    0.0100    0.0100    0.0100
    0.0100    0.0100    0.0100    0.0100    0.0100    0.0100    0.0100    0.0100
    0.0100    0.0100    0.0100    0.0100    0.0100    0.0100    0.0100    0.0100
    0.0100    0.0100    0.0100    0.0100    0.0100    0.0100    0.0100    0.0100
    0.0100    0.0100    0.0100    0.0100    0.0100    0.0100    0.0100    0.0100
    0.0100    0.0100    0.0100    0.0100    0.0100    0.0100    0.0100    0.0100
    0.0100    0.0100    0.0100    0.0100    0.0100    0.0100    0.0100    0.0100
    0.0100    0.0100    0.0100    0.0100    0.0100    0.0100    0.0100    0.0100
    0.0100    0.0100    0.0100    0.0100    0.0100    0.0100    0.0100    0.0100
    0.0100    0.0100    0.0100    0.0100    0.0100    0.0100    0.0100    0.0100
    0.0100    0.0100    0.0100    0.0100    0.0100    0.0100    0.0100    0.0100
    0.0100    0.0100    0.0100    0.0100    0.0100    0.0100    0.0100    0.0100
    0.0100    0.0100    0.0100    0.0100    0.0100    0.0100    0.0100    0.0100
    0.0100    0.0100    0.0100    0.0100    0.0100    0.0100    0.0100    0.0100
    0.0100    0.0100    0.0100    0.0100    0.0100    0.0100    0.0100    0.0100
    0.0100    0.0100    0.0100    0.0100    0.0100    0.0100    0.0100    0.0100
    0.0100    0.0100    0.0100    0.0100    0.0100    0.0100    0.0100    0.0100
    0.0100    0.0100    0.0100    0.0100    0.0100    0.0100    0.0100    0.0100
    0.0100    0.0100    0.0100    0.0100    0.0100    0.0100    0.0100    0.0100
    0.0100    0.0100    0.0100    0.0100    0.0100    0.0100    0.0100    0.0100
    0.0100    0.0100    0.0100    0.0100    0.0100    0.0100    0.0100    0.0100
    0.0100    0.0100    0.0100    0.0100    0.0100    0.0100    0.0100    0.0100
    0.0100    0.0100    0.0100    0.0100    0.0100    0.0100    0.0100    0.0100
    0.0100    0.0100    0.0100    0.0100    0.0100    0.0100    0.0100    0.0100
    0.0100    0.0100    0.0100    0.0100    0.0100    0.0100    0.0100    0.0100
    0.0100    0.0100    0.0100    0.0100    0.0100    0.0100    0.0100    0.0100
    0.0100    0.0100    0.0100    0.0100    0.0100    0.0100    0.0100    0.0100
    0.0100    0.0100    0.0100    0.0100    0.0100    0.0100    0.0100    0.0100
    0.0100    0.0100    0.0100    0.0100    0.0100    0.0100    0.0100    0.0100
    0.0100    0.0100    0.0100    0.0100    0.0100    0.0100    0.0100    0.0100
    0.0100    0.0100    0.0100    0.0100    0.0100    0.0100    0.0100    0.0100
    0.0100    0.0100    0.0100    0.0100    0.0100    0.0100    0.0100    0.0100
    0.0100    0.0100    0.0100    0.0100    0.0100    0.0100    0.0100    0.0100
    0.0100    0.0100    0.0100    0.0100    0.0100    0.0100    0.0100    0.0100
    0.0100    0.0100
   </PP_RAB>
 </PP_MESH>
  <PP_LOCAL type="real"  size=" 602" columns="4">
   -5.2600627400E+01   -5.2598855370E+01   -5.2593574127E+01   -5.2584745672E+01
   -5.2572332006E+01   -5.2556282938E+01   -5.2536538783E+01   -5.2513033443E+01
   -5.2485697630E+01   -5.2454462029E+01   -5.2419260200E+01   -5.2380031076E+01
   -5.2336720979E+01   -5.2289285088E+01   -5.2237688385E+01   -5.2181906093E+01
   -5.2121923692E+01   -5.2057736576E+01   -5.1989349434E+01   -5.1916775451E+01
   -5.1840035384E+01   -5.1759156584E+01   -5.1674172022E+01   -5.1585119339E+01
   -5.1492039967E+01   -5.1394978323E+01   -5.1293981095E+01   -5.1189096613E+01
   -5.1080374318E+01   -5.0967864306E+01   -5.0851616947E+01   -5.0731682584E+01
   -5.0608111275E+01   -5.0480952596E+01   -5.0350255487E+01   -5.0216068124E+01
   -5.0078437833E+01   -4.9937411017E+01   -4.9793033107E+01   -4.9645348528E+01
   -4.9494400678E+01   -4.9340231915E+01   -4.9182883555E+01   -4.9022395876E+01
   -4.8858808135E+01   -4.8692158584E+01   -4.8522484501E+01   -4.8349822224E+01
   -4.8174207197E+01   -4.7995674028E+01   -4.7814256561E+01   -4.7629987947E+01
   -4.7442900745E+01   -4.7253027036E+01   -4.7060398538E+01   -4.6865046760E+01
   -4.6667003158E+01   -4.6466299312E+01   -4.6262967118E+01   -4.6057039006E+01
   -4.5848548156E+01   -4.5637528729E+01   -4.5424016143E+01   -4.5208047260E+01
   -4.4989660715E+01   -4.4768897131E+01   -4.4545799325E+01   -4.4320412591E+01
   -4.4092784936E+01   -4.3862967210E+01   -4.3631013278E+01   -4.3396980179E+01
   -4.3160928293E+01   -4.2922921313E+01   -4.2683026305E+01   -4.2441313710E+01
   -4.2197857290E+01   -4.1952734026E+01   -4.1706024056E+01   -4.1457810481E+01
   -4.1208179173E+01   -4.0957218574E+01   -4.0705019467E+01   -4.0451674723E+01
   -4.0197279047E+01   -3.9941928701E+01   -3.9685721239E+01   -3.9428755228E+01
   -3.9171129984E+01   -3.8912945311E+01   -3.8654301253E+01   -3.8395297852E+01
   -3.8136034932E+01   -3.7876611894E+01   -3.7617127497E+01   -3.7357679700E+01
   -3.7098365499E+01   -3.6839280774E+01   -3.6580520160E+01   -3.6322176927E+01
   -3.6064342894E+01   -3.5807108357E+01   -3.5550561817E+01   -3.5294790098E+01
   -3.5039878216E+01   -3.4785909316E+01   -3.4532964744E+01   -3.4281123660E+01
   -3.4030463171E+01   -3.3781058340E+01   -3.3532982147E+01   -3.3286305533E+01
   -3.3041096771E+01   -3.2797422055E+01   -3.2555345352E+01   -3.2314928462E+01
   -3.2076230178E+01   -3.1839307134E+01   -3.1604213788E+01   -3.1371001771E+01
   -3.1139719875E+01   -3.0910414660E+01   -3.0683130406E+01   -3.0457907698E+01
   -3.0234784939E+01   -3.0013798625E+01   -2.9794980917E+01   -2.9578361910E+01
   -2.9363969878E+01   -2.9151828440E+01   -2.8941959328E+01   -2.8734382268E+01
   -2.8529112255E+01   -2.8326162823E+01   -2.8125544713E+01   -2.7927264517E+01
   -2.7731327802E+01   -2.7537735975E+01   -2.7346487714E+01   -2.7157580586E+01
   -2.6971006780E+01   -2.6786758063E+01   -2.6604822450E+01   -2.6425184961E+01
   -2.6247829893E+01   -2.6072736108E+01   -2.5899882774E+01   -2.5729244436E+01
   -2.5560794163E+01   -2.5394502861E+01   -2.5230337436E+01   -2.5068265150E+01
   -2.4908247204E+01   -2.4750246136E+01   -2.4594218500E+01   -2.4440122125E+01
   -2.4287913358E+01   -2.4137550532E+01   -2.3988993364E+01   -2.3842203629E+01
   -2.3697143685E+01   -2.3553778622E+01   -2.3412073269E+01   -2.3271995675E+01
   -2.3133513034E+01   -2.2996595976E+01   -2.2861213922E+01   -2.2727339709E+01
   -2.2594944819E+01   -2.2464003939E+01   -2.2334490433E+01   -2.2206380523E+01
   -2.2079649264E+01   -2.1954274150E+01   -2.1830231749E+01   -2.1707500622E+01
   -2.1586058691E+01   -2.1465885431E+01   -2.1346960002E+01   -2.1229262684E+01
   -2.1112773813E+01   -2.0997474390E+01   -2.0883345929E+01   -2.0770370076E+01
   -2.0658529586E+01   -2.0547806680E+01   -2.0438185431E+01   -2.0329648629E+01
   -2.0222181502E+01   -2.0115768009E+01   -2.0010393937E+01   -1.9906044736E+01
   -1.9802706610E+01   -1.9700366611E+01   -1.9599011272E+01   -1.9498629123E+01
   -1.9399207340E+01   -1.9300735273E+01   -1.9203201465E+01   -1.9106595342E+01
   -1.9010906886E+01   -1.8916125609E+01   -1.8822242484E+01   -1.8729247621E+01
   -1.8637132183E+01   -1.8545887182E+01   -1.8455503684E+01   -1.8365973281E+01
   -1.8277287215E+01   -1.8189437154E+01   -1.8102414668E+01   -1.8016211328E+01
   -1.7930818741E+01   -1.7846228573E+01   -1.7762432271E+01   -1.7679421392E+01
   -1.7597187428E+01   -1.7515721618E+01   -1.7435015455E+01   -1.7355060036E+01
   -1.7275846506E+01   -1.7197366107E+01   -1.7119609677E+01   -1.7042568274E+01
   -1.6966232811E+01   -1.6890594089E+01   -1.6815643010E+01   -1.6741370374E+01
   -1.6667766984E+01   -1.6594823633E+01   -1.6522531256E+01   -1.6450880646E+01
   -1.6379862729E+01   -1.6309468666E+01   -1.6239689283E+01   -1.6170515913E+01
   -1.6101939996E+01   -1.6033952464E+01   -1.5966545284E+01   -1.5899710205E+01
   -1.5833438418E+01   -1.5767722624E+01   -1.5702554867E+01   -1.5637926947E+01
   -1.5573832128E+01   -1.5510262887E+01   -1.5447211708E+01   -1.5384672473E+01
   -1.5322638183E+01   -1.5261102039E+01   -1.5200058568E+01   -1.5139501496E+01
   -1.5079424732E+01   -1.5019822990E+01   -1.4960690476E+01   -1.4902021504E+01
   -1.4843810917E+01   -1.4786053175E+01   -1.4728742794E+01   -1.4671874964E+01
   -1.4615444489E+01   -1.4559446107E+01   -1.4503875242E+01   -1.4448726993E+01
   -1.4393996258E+01   -1.4339678684E+01   -1.4285769627E+01   -1.4232264139E+01
   -1.4179158051E+01   -1.4126446942E+01   -1.4074126125E+01   -1.4022191474E+01
   -1.3970638839E+01   -1.3919463805E+01   -1.3868662253E+01   -1.3818230300E+01
   -1.3768163820E+01   -1.3718458660E+01   -1.3669111215E+01   -1.3620117635E+01
   -1.3571473784E+01   -1.3523176246E+01   -1.3475221367E+01   -1.3427605288E+01
   -1.3380324495E+01   -1.3333375618E+01   -1.3286755089E+01   -1.3240459270E+01
   -1.3194485060E+01   -1.3148829121E+01   -1.3103487887E+01   -1.3058458300E+01
   -1.3013737247E+01   -1.2969321453E+01   -1.2925207673E+01   -1.2881393072E+01
   -1.2837874617E+01   -1.2794649052E+01   -1.2751713617E+01   -1.2709065479E+01
   -1.2666701676E+01   -1.2624619210E+01   -1.2582815529E+01   -1.2541287876E+01
   -1.2500033319E+01   -1.2459049257E+01   -1.2418333161E+01   -1.2377882399E+01
   -1.2337694092E+01   -1.2297765985E+01   -1.2258095570E+01   -1.2218680257E+01
   -1.2179517484E+01   -1.2140605037E+01   -1.2101940526E+01   -1.2063521411E+01
   -1.2025345412E+01   -1.1987410355E+01   -1.1949713963E+01   -1.1912253757E+01
   -1.1875027698E+01   -1.1838033660E+01   -1.1801269470E+01   -1.1764732724E+01
   -1.1728421583E+01   -1.1692333974E+01   -1.1656467794E+01   -1.1620820818E+01
   -1.1585391270E+01   -1.1550177176E+01   -1.1515176507E+01   -1.1480387187E+01
   -1.1445807509E+01   -1.1411435590E+01   -1.1377269485E+01   -1.1343307234E+01
   -1.1309547205E+01   -1.1275987603E+01   -1.1242626573E+01   -1.1209462242E+01
   -1.1176493057E+01   -1.1143717308E+01   -1.1111133238E+01   -1.1078739030E+01
   -1.1046533219E+01   -1.1014514176E+01   -1.0982680243E+01   -1.0951029639E+01
   -1.0919560990E+01   -1.0888272742E+01   -1.0857163338E+01   -1.0826231032E+01
   -1.0795474519E+01   -1.0764892325E+01   -1.0734482968E+01   -1.0704244814E+01
   -1.0674176531E+01   -1.0644276757E+01   -1.0614544077E+01   -1.0584976977E+01
   -1.0555574078E+01   -1.0526334130E+01   -1.0497255786E+01   -1.0468337656E+01
   -1.0439578295E+01   -1.0410976569E+01   -1.0382531191E+01   -1.0354240877E+01
   -1.0326104184E+01   -1.0298120006E+01   -1.0270287146E+01   -1.0242604380E+01
   -1.0215070398E+01   -1.0187683982E+01   -1.0160444065E+01   -1.0133349478E+01
   -1.0106399054E+01   -1.0079591451E+01   -1.0052925726E+01   -1.0026400766E+01
   -1.0000015458E+01   -9.9737686037E+00   -9.9476591051E+00   -9.9216859926E+00
   -9.8958482042E+00   -9.8701446783E+00   -9.8445742004E+00   -9.8191358897E+00
   -9.7938287495E+00   -9.7686517674E+00   -9.7436038821E+00   -9.7186840253E+00
   -9.6938913495E+00   -9.6692248894E+00   -9.6446836800E+00   -9.6202666559E+00
   -9.5959729151E+00   -9.5718016009E+00   -9.5477517933E+00   -9.5238225720E+00
   -9.5000128789E+00   -9.4763219491E+00   -9.4527489248E+00   -9.4292929286E+00
   -9.4059530689E+00   -9.3827283472E+00   -9.3596180654E+00   -9.3366213871E+00
   -9.3137374758E+00   -9.2909654576E+00   -9.2683044284E+00   -9.2457537045E+00
   -9.2233124886E+00   -9.2009799830E+00   -9.1787553395E+00   -9.1566377256E+00
   -9.1346264786E+00   -9.1127208382E+00   -9.0909200442E+00   -9.0692232813E+00
   -9.0476297661E+00   -9.0261388643E+00   -9.0047498510E+00   -8.9834620012E+00
   -8.9622745399E+00   -8.9411867119E+00   -8.9201979177E+00   -8.8993074663E+00
   -8.8785146665E+00   -8.8578187897E+00   -8.8372190897E+00   -8.8167150080E+00
   -8.7963058859E+00   -8.7759910644E+00   -8.7557698677E+00   -8.7356415403E+00
   -8.7156055706E+00   -8.6956613303E+00   -8.6758081913E+00   -8.6560455253E+00
   -8.6363725850E+00   -8.6167888762E+00   -8.5972938113E+00   -8.5778867913E+00
   -8.5585672172E+00   -8.5393344068E+00   -8.5201878160E+00   -8.5011269197E+00
   -8.4821511469E+00   -8.4632599265E+00   -8.4444526475E+00   -8.4257287008E+00
   -8.4070876278E+00   -8.3885288842E+00   -8.3700519254E+00   -8.3516562070E+00
   -8.3333410733E+00   -8.3151061038E+00   -8.2969507896E+00   -8.2788746116E+00
   -8.2608770508E+00   -8.2429575328E+00   -8.2251155390E+00   -8.2073506399E+00
   -8.1896623407E+00   -8.1720501464E+00   -8.1545135622E+00   -8.1370519854E+00
   -8.1196650417E+00   -8.1023522675E+00   -8.0851131908E+00   -8.0679473400E+00
   -8.0508542041E+00   -8.0338332817E+00   -8.0168841985E+00   -8.0000065048E+00
   -7.9831997507E+00   -7.9664634864E+00   -7.9497971862E+00   -7.9332004535E+00
   -7.9166728957E+00   -7.9002140841E+00   -7.8838235896E+00   -7.8675009835E+00
   -7.8512457343E+00   -7.8350575288E+00   -7.8189359635E+00   -7.8028806295E+00
   -7.7868911180E+00   -7.7709670034E+00   -7.7551078066E+00   -7.7393132270E+00
   -7.7235828749E+00   -7.7079163604E+00   -7.6923132937E+00   -7.6767732546E+00
   -7.6612958144E+00   -7.6458806755E+00   -7.6305274660E+00   -7.6152358143E+00
   -7.6000053488E+00   -7.5848356617E+00   -7.5697263572E+00   -7.5546771467E+00
   -7.5396876760E+00   -7.5247575906E+00   -7.5098865363E+00   -7.4950741241E+00
   -7.4803199744E+00   -7.4656238144E+00   -7.4509853062E+00   -7.4364041121E+00
   -7.4218798940E+00   -7.4074122885E+00   -7.3930009160E+00   -7.3786455257E+00
   -7.3643457953E+00   -7.3501014028E+00   -7.3359120261E+00   -7.3217773325E+00
   -7.3076969283E+00   -7.2936705899E+00   -7.2796980102E+00   -7.2657788820E+00
   -7.2519128982E+00   -7.2380997517E+00   -7.2243390543E+00   -7.2106305815E+00
   -7.1969740513E+00   -7.1833691709E+00   -7.1698156476E+00   -7.1563131885E+00
   -7.1428614481E+00   -7.1294601559E+00   -7.1161090709E+00   -7.1028079139E+00
   -7.0895564056E+00   -7.0763542671E+00   -7.0632012007E+00   -7.0500968783E+00
   -7.0370411035E+00   -7.0240336101E+00   -7.0110741320E+00   -6.9981624031E+00
   -6.9852981571E+00   -6.9724810632E+00   -6.9597109075E+00   -6.9469874577E+00
   -6.9343104601E+00   -6.9216796610E+00   -6.9090948066E+00   -6.8965556245E+00
   -6.8840618166E+00   -6.8716132063E+00   -6.8592095518E+00   -6.8468506110E+00
   -6.8345361421E+00   -6.8222659032E+00   -6.8100396018E+00   -6.7978570210E+00
   -6.7857179622E+00   -6.7736221949E+00   -6.7615694882E+00   -6.7495596117E+00
   -6.7375923346E+00   -6.7256673528E+00   -6.7137845125E+00   -6.7019436001E+00
   -6.6901443957E+00   -6.6783866793E+00   -6.6666702312E+00   -6.6549948191E+00
   -6.6433601708E+00   -6.6317661425E+00   -6.6202125246E+00   -6.6086991075E+00
   -6.5972256813E+00   -6.5857920366E+00   -6.5743979401E+00   -6.5630431552E+00
   -6.5517275352E+00   -6.5404508802E+00   -6.5292129904E+00   -6.5180136658E+00
   -6.5068527065E+00   -6.4957298847E+00   -6.4846449847E+00   -6.4735978629E+00
   -6.4625883287E+00   -6.4516161916E+00   -6.4406812609E+00   -6.4297833462E+00
   -6.4189222306E+00   -6.4080977057E+00   -6.3973096368E+00   -6.3865578421E+00
   -6.3758421401E+00   -6.3651623489E+00   -6.3545182870E+00   -6.3439097542E+00
   -6.3333365362E+00   -6.3227985128E+00
  </PP_LOCAL>
 <PP_NONLOCAL>
   <PP_BETA.1
       type="real"
       size=" 602"
       columns="4"
       index="1"
       angular_momentum="0"
       cutoff_radius_index=" 270"
       cutoff_radius="    2.6900000000E+00" >
    0.0000000000E+00    5.9640420065E-02    1.1917633090E-01    1.7850344038E-01
    2.3751789012E-01    2.9611647106E-01    3.5419683766E-01    4.1165771998E-01
    4.6839913345E-01    5.2432258559E-01    5.7933127935E-01    6.3333031262E-01
    6.8622687333E-01    7.3793042982E-01    7.8835291605E-01    8.3740891110E-01
    8.8501581265E-01    9.3109400417E-01    9.7556701513E-01    1.0183616742E+00
    1.0594082548E+00    1.0986406130E+00    1.1359963174E+00    1.1714167700E+00
    1.2048473193E+00    1.2362373637E+00    1.2655404463E+00    1.2927143396E+00
    1.3177211223E+00    1.3405272442E+00    1.3611035833E+00    1.3794254912E+00
    1.3954728306E+00    1.4092300012E+00    1.4206859547E+00    1.4298342031E+00
    1.4366728124E+00    1.4412043903E+00    1.4434360613E+00    1.4433794323E+00
    1.4410505495E+00    1.4364698448E+00    1.4296620719E+00    1.4206562348E+00
    1.4094855054E+00    1.3961871332E+00    1.3808023468E+00    1.3633762438E+00
    1.3439576763E+00    1.3225991257E+00    1.2993565746E+00    1.2742893651E+00
    1.2474600469E+00    1.2189342413E+00    1.1887804643E+00    1.1570699702E+00
    1.1238765912E+00    1.0892765356E+00    1.0533482462E+00    1.0161721765E+00
    9.7783063198E-01    9.3840757946E-01    8.9798841124E-01    8.5665982972E-01
    8.1450956294E-01    7.7162620329E-01    7.2809904149E-01    6.8401781401E-01
    6.3947249489E-01    5.9455314188E-01    5.4934969099E-01    5.0395174195E-01
    4.5844831929E-01    4.1292774723E-01    3.6747743291E-01    3.2218367734E-01
    2.7713149008E-01    2.3240442630E-01    1.8808436464E-01    1.4425135833E-01
    1.0098348495E-01    5.8356673680E-02    1.6444550133E-02   -2.4681712608E-02
   -6.4953536273E-02   -1.0430507277E-01   -1.4267333235E-01   -1.7999830419E-01
   -2.1622306927E-01   -2.5129390519E-01   -2.8516038260E-01   -3.1777545326E-01