
     Program PWSCF v.6.7GPU starts on 29Jan2021 at 23:52:50 

     This program is part of the open-source Quantum ESPRESSO suite
     for quantum simulation of materials; please cite
         "P. Giannozzi et al., J. Phys.:Condens. Matter 21 395502 (2009);
         "P. Giannozzi et al., J. Phys.:Condens. Matter 29 465901 (2017);
         "P. Giannozzi et al., J. Chem. Phys. 152 154105 (2020);
          URL http://www.quantum-espresso.org", 
     in publications or presentations arising from this work. More details at
     http://www.quantum-espresso.org/quote

     Parallel version (MPI), running on     4 processors

     MPI processes distributed on     1 nodes
     R & G space division:  proc/nbgrp/npool/nimage =       4
     Reading input from CH4.pw.in

     Current dimensions of program PWSCF are:
     Max number of different atomic species (ntypx) = 10
     Max number of k-points (npk) =  40000
     Max angular momentum in pseudopotentials (lmaxx) =  3
     file H.pz-vbc.UPF: wavefunction(s)  1S renormalized

     gamma-point specific algorithms are used

     Subspace diagonalization in iterative solution of the eigenvalue problem:
     one sub-group per band group will be used
     scalapack distributed-memory algorithm (size of sub-group:  2*  2 procs)

 
     Parallelization info
     --------------------
     sticks:   dense  smooth     PW     G-vecs:    dense   smooth      PW
     Min        1787    1787    445               113964   113964   14262
     Max        1790    1790    450               113970   113970   14264
     Sum        7153    7153   1789               455863   455863   57051
 
     Using Slab Decomposition
 

     Title: 
     TDDFPT CH4 Test                                                            


     bravais-lattice index     =            1
     lattice parameter (alat)  =      30.0000  a.u.
     unit-cell volume          =   27000.0000 (a.u.)^3
     number of atoms/cell      =            5
     number of atomic types    =            2
     number of electrons       =         8.00
     number of Kohn-Sham states=            4
     kinetic-energy cutoff     =      25.0000  Ry
     charge density cutoff     =     100.0000  Ry
     scf convergence threshold =      1.0E-10
     mixing beta               =       0.7000
     number of iterations used =            8  plain     mixing
     Exchange-correlation= SLA  PZ   NOGX NOGC
                           (   1   1   0   0   0   0   0)

     celldm(1)=  30.000000  celldm(2)=   0.000000  celldm(3)=   0.000000
     celldm(4)=   0.000000  celldm(5)=   0.000000  celldm(6)=   0.000000

     crystal axes: (cart. coord. in units of alat)
               a(1) = (   1.000000   0.000000   0.000000 )  
               a(2) = (   0.000000   1.000000   0.000000 )  
               a(3) = (   0.000000   0.000000   1.000000 )  

     reciprocal axes: (cart. coord. in units 2 pi/alat)
               b(1) = (  1.000000  0.000000  0.000000 )  
               b(2) = (  0.000000  1.000000  0.000000 )  
               b(3) = (  0.000000  0.000000  1.000000 )  


     PseudoPot. # 1 for C  read from file:
     /group2/jmlim/tddfpt/q-e/test-suite/..//pseudo/C.pz-vbc.UPF
     MD5 check sum: f697e42eaa1e52b77fcf7925dd36a1dd
     Pseudo is Norm-conserving, Zval =  4.0
     Generated by new atomic code, or converted to UPF format
     Using radial grid of  269 points,  1 beta functions with: 
                l(1) =   0

     PseudoPot. # 2 for H  read from file:
     /group2/jmlim/tddfpt/q-e/test-suite/..//pseudo/H.pz-vbc.UPF
     MD5 check sum: b4742c37e165d3c4b97552e3cd66ffd5
     Pseudo is Norm-conserving, Zval =  1.0
     Generated by new atomic code, or converted to UPF format
     Using radial grid of  131 points,  0 beta functions with: 

     atomic species   valence    mass     pseudopotential
        C              4.00     1.00000     C ( 1.00)
        H              1.00     1.00000     H ( 1.00)

     24 Sym. Ops. (no inversion) found



   Cartesian axes

     site n.     atom                  positions (alat units)
         1           C   tau(   1) = (   0.0000000   0.0000000   0.0000000  )
         2           H   tau(   2) = (   0.0404914   0.0404914   0.0404914  )
         3           H   tau(   3) = (  -0.0404914  -0.0404914   0.0404914  )
         4           H   tau(   4) = (   0.0404914  -0.0404914  -0.0404914  )
         5           H   tau(   5) = (  -0.0404914   0.0404914  -0.0404914  )

     number of k points=     1
                       cart. coord. in units 2pi/alat
        k(    1) = (   0.0000000   0.0000000   0.0000000), wk =   2.0000000

     Dense  grid:   227932 G-vectors     FFT dimensions: (  96,  96,  96)

     Estimated max dynamical RAM per process >      42.92 MB

     Estimated total dynamical RAM >     171.68 MB

     Initial potential from superposition of free atoms

     starting charge    7.99987, renormalised to    8.00000

     negative rho (up, down):  3.930E-02 0.000E+00
     Starting wfcs are    8 randomized atomic wfcs

     total cpu time spent up to now is        0.7 secs

     Self-consistent Calculation

     iteration #  1     ecut=    25.00 Ry     beta= 0.70
     Davidson diagonalization with overlap
     ethr =  1.00E-02,  avg # of iterations =  2.0

     negative rho (up, down):  1.151E-02 0.000E+00

     total cpu time spent up to now is        0.9 secs

     total energy              =     -15.62499024 Ry
     estimated scf accuracy    <       0.53744305 Ry

     iteration #  2     ecut=    25.00 Ry     beta= 0.70
     Davidson diagonalization with overlap
     ethr =  6.72E-03,  avg # of iterations =  2.0

     negative rho (up, down):  5.798E-03 0.000E+00

     total cpu time spent up to now is        1.0 secs

     total energy              =     -15.75632321 Ry
     estimated scf accuracy    <       0.13921009 Ry

     iteration #  3     ecut=    25.00 Ry     beta= 0.70
     Davidson diagonalization with overlap
     ethr =  1.74E-03,  avg # of iterations =  2.0

     negative rho (up, down):  2.315E-04 0.000E+00

     total cpu time spent up to now is        1.1 secs

     total energy              =     -15.77602388 Ry
     estimated scf accuracy    <       0.00369112 Ry

     iteration #  4     ecut=    25.00 Ry     beta= 0.70
     Davidson diagonalization with overlap
     ethr =  4.61E-05,  avg # of iterations =  2.0

     negative rho (up, down):  1.341E-04 0.000E+00

     total cpu time spent up to now is        1.3 secs

     total energy              =     -15.77717731 Ry
     estimated scf accuracy    <       0.00158998 Ry

     iteration #  5     ecut=    25.00 Ry     beta= 0.70
     Davidson diagonalization with overlap
     ethr =  1.99E-05,  avg # of iterations =  1.0

     negative rho (up, down):  4.141E-06 0.000E+00

     total cpu time spent up to now is        1.4 secs

     total energy              =     -15.77703381 Ry
     estimated scf accuracy    <       0.00033268 Ry

     iteration #  6     ecut=    25.00 Ry     beta= 0.70
     Davidson diagonalization with overlap
     ethr =  4.16E-06,  avg # of iterations =  3.0

     negative rho (up, down):  5.006E-07 0.000E+00

     total cpu time spent up to now is        1.5 secs

     total energy              =     -15.77694191 Ry
     estimated scf accuracy    <       0.00164879 Ry

     iteration #  7     ecut=    25.00 Ry     beta= 0.70
     Davidson diagonalization with overlap
     ethr =  4.16E-06,  avg # of iterations =  2.0

     negative rho (up, down):  1.848E-08 0.000E+00

     total cpu time spent up to now is        1.7 secs

     total energy              =     -15.77712675 Ry
     estimated scf accuracy    <       0.00004537 Ry

     iteration #  8     ecut=    25.00 Ry     beta= 0.70
     Davidson diagonalization with overlap
     ethr =  5.67E-07,  avg # of iterations =  3.0

     negative rho (up, down):  1.474E-08 0.000E+00

     total cpu time spent up to now is        1.9 secs

     total energy              =     -15.77714223 Ry
     estimated scf accuracy    <       0.00009207 Ry

     iteration #  9     ecut=    25.00 Ry     beta= 0.70
     Davidson diagonalization with overlap
     ethr =  5.67E-07,  avg # of iterations =  2.0

     total cpu time spent up to now is        2.0 secs

     total energy              =     -15.77715303 Ry
     estimated scf accuracy    <       0.00000991 Ry

     iteration # 10     ecut=    25.00 Ry     beta= 0.70
     Davidson diagonalization with overlap
     ethr =  1.24E-07,  avg # of iterations =  1.0

     total cpu time spent up to now is        2.1 secs

     total energy              =     -15.77715161 Ry
     estimated scf accuracy    <       0.00001857 Ry

     iteration # 11     ecut=    25.00 Ry     beta= 0.70
     Davidson diagonalization with overlap
     ethr =  1.24E-07,  avg # of iterations =  1.0

     total cpu time spent up to now is        2.3 secs

     total energy              =     -15.77714213 Ry
     estimated scf accuracy    <       0.00001544 Ry

     iteration # 12     ecut=    25.00 Ry     beta= 0.70
     Davidson diagonalization with overlap
     ethr =  1.24E-07,  avg # of iterations =  2.0

     total cpu time spent up to now is        2.4 secs

     total energy              =     -15.77714865 Ry
     estimated scf accuracy    <       0.00000294 Ry

     iteration # 13     ecut=    25.00 Ry     beta= 0.70
     Davidson diagonalization with overlap
     ethr =  3.68E-08,  avg # of iterations =  1.0

     total cpu time spent up to now is        2.5 secs

     total energy              =     -15.77714801 Ry
     estimated scf accuracy    <       0.00000559 Ry

     iteration # 14     ecut=    25.00 Ry     beta= 0.70
     Davidson diagonalization with overlap
     ethr =  3.68E-08,  avg # of iterations =  1.0

     total cpu time spent up to now is        2.7 secs

     total energy              =     -15.77714723 Ry
     estimated scf accuracy    <       0.00000395 Ry

     iteration # 15     ecut=    25.00 Ry     beta= 0.70
     Davidson diagonalization with overlap
     ethr =  3.68E-08,  avg # of iterations =  1.0

     total cpu time spent up to now is        2.8 secs

     total energy              =     -15.77714670 Ry
     estimated scf accuracy    <       0.00000153 Ry

     iteration # 16     ecut=    25.00 Ry     beta= 0.70
     Davidson diagonalization with overlap
     ethr =  1.92E-08,  avg # of iterations =  2.0

     total cpu time spent up to now is        3.0 secs

     total energy              =     -15.77714685 Ry
     estimated scf accuracy    <       0.00000005 Ry

     iteration # 17     ecut=    25.00 Ry     beta= 0.70
     Davidson diagonalization with overlap
     ethr =  6.77E-10,  avg # of iterations =  2.0

     total cpu time spent up to now is        3.1 secs

     total energy              =     -15.77714687 Ry
     estimated scf accuracy    <          9.3E-09 Ry

     iteration # 18     ecut=    25.00 Ry     beta= 0.70
     Davidson diagonalization with overlap
     ethr =  1.16E-10,  avg # of iterations =  1.0

     total cpu time spent up to now is        3.2 secs

     total energy              =     -15.77714687 Ry
     estimated scf accuracy    <          3.0E-09 Ry

     iteration # 19     ecut=    25.00 Ry     beta= 0.70
     Davidson diagonalization with overlap
     ethr =  3.77E-11,  avg # of iterations =  2.0

     total cpu time spent up to now is        3.4 secs

     total energy              =     -15.77714687 Ry
     estimated scf accuracy    <          3.7E-10 Ry

     iteration # 20     ecut=    25.00 Ry     beta= 0.70
     Davidson diagonalization with overlap
     ethr =  4.66E-12,  avg # of iterations =  2.0

     total cpu time spent up to now is        3.5 secs

     total energy              =     -15.77714687 Ry
     estimated scf accuracy    <          1.4E-10 Ry

     iteration # 21     ecut=    25.00 Ry     beta= 0.70
     Davidson diagonalization with overlap
     ethr =  1.79E-12,  avg # of iterations =  2.0

     total cpu time spent up to now is        3.7 secs

     total energy              =     -15.77714687 Ry
     estimated scf accuracy    <          6.3E-10 Ry

     iteration # 22     ecut=    25.00 Ry     beta= 0.70
     Davidson diagonalization with overlap
     ethr =  1.79E-12,  avg # of iterations =  1.0

     total cpu time spent up to now is        3.8 secs

     total energy              =     -15.77714687 Ry
     estimated scf accuracy    <          5.9E-10 Ry

     iteration # 23     ecut=    25.00 Ry     beta= 0.70
     Davidson diagonalization with overlap
     ethr =  1.79E-12,  avg # of iterations =  3.0

     total cpu time spent up to now is        4.0 secs

     total energy              =     -15.77714687 Ry
     estimated scf accuracy    <          6.6E-10 Ry

     iteration # 24     ecut=    25.00 Ry     beta= 0.70
     Davidson diagonalization with overlap
     ethr =  1.79E-12,  avg # of iterations =  2.0

     total cpu time spent up to now is        4.1 secs

     End of self-consistent calculation

          k = 0.0000 0.0000 0.0000 ( 28526 PWs)   bands (ev):

   -16.9088  -9.3077  -9.3077  -9.3077

     highest occupied level (ev):    -9.3077

!    total energy              =     -15.77714687 Ry
     estimated scf accuracy    <          8.6E-11 Ry

     The total energy is the sum of the following terms:
     one-electron contribution =     -46.10024774 Ry
     hartree contribution      =      23.71656857 Ry
     xc contribution           =      -6.06421616 Ry
     ewald contribution        =      12.67074846 Ry

     convergence has been achieved in  24 iterations

     Writing output data file ./out/CH4.save/
 
     init_run     :      0.22s CPU      0.67s WALL (       1 calls)
     electrons    :      3.35s CPU      3.41s WALL (       1 calls)

     Called by init_run:
     wfcinit      :      0.07s CPU      0.38s WALL (       1 calls)
     potinit      :      0.05s CPU      0.06s WALL (       1 calls)
     hinit0       :      0.02s CPU      0.11s WALL (       1 calls)

     Called by electrons:
     c_bands      :      1.27s CPU      1.28s WALL (      24 calls)
     sum_band     :      0.66s CPU      0.67s WALL (      24 calls)
     v_of_rho     :      0.65s CPU      0.66s WALL (      25 calls)
     mix_rho      :      0.69s CPU      0.71s WALL (      24 calls)

     Called by c_bands:
     init_us_2    :      0.02s CPU      0.02s WALL (      49 calls)
     regterg      :      1.26s CPU      1.27s WALL (      24 calls)

     Called by *egterg:
     rdiaghg      :      0.11s CPU      0.38s WALL (      67 calls)
     h_psi        :      1.10s CPU      1.12s WALL (      68 calls)
     g_psi        :      0.01s CPU      0.01s WALL (      43 calls)

     Called by h_psi:
     h_psi:calbec :      0.01s CPU      0.01s WALL (      68 calls)
     vloc_psi     :      1.08s CPU      1.09s WALL (      68 calls)
     add_vuspsi   :      0.01s CPU      0.01s WALL (      68 calls)

     General routines
     calbec       :      0.01s CPU      0.01s WALL (      68 calls)
     fft          :      0.53s CPU      0.62s WALL (      74 calls)
     ffts         :      0.16s CPU      0.17s WALL (      24 calls)
     fftw         :      1.01s CPU      1.03s WALL (     324 calls)
 
     Parallel routines
 
     PWSCF        :      3.59s CPU      4.13s WALL

 
   This run was terminated on:  23:52:54  29Jan2021            

=------------------------------------------------------------------------------=
   JOB DONE.
=------------------------------------------------------------------------------=
