
     Program DYNMAT v.6.0 (svn rev. 13188M) starts on  7Dec2016 at 11: 0: 7 

     This program is part of the open-source Quantum ESPRESSO suite
     for quantum simulation of materials; please cite
         "P. Giannozzi et al., J. Phys.:Condens. Matter 21 395502 (2009);
          URL http://www.quantum-espresso.org", 
     in publications or presentations arising from this work. More details at
     http://www.quantum-espresso.org/quote

     Parallel version (MPI), running on     1 processors

     Reading Dynamical Matrix from file ch4.dyn.xml
     Acoustic Sum Rule: || Z*(ASR) - Z*(orig)|| =    7.773120E-02
     Acoustic Sum Rule: ||dyn(ASR) - dyn(orig)||=    5.962713E-04
     A direction for q was not specified:TO-LO splitting will be absent

     Polarizability (A^3 units)
     multiply by 0.976636 for Clausius-Mossotti correction
         2.856345    0.000000    0.000000
         0.000000    2.856345    0.000000
         0.000000    0.000000    2.856345

     IR activities are in (D/A)^2/amu units

# mode   [cm-1]    [THz]      IR
    1     -0.00   -0.0000    0.0000
    2     -0.00   -0.0000    0.0000
    3     -0.00   -0.0000    0.0000
    4     -0.00   -0.0000    0.0000
    5      0.00    0.0000    0.0000
    6      0.00    0.0000    0.0000
    7   1218.61   36.5329    0.3504
    8   1218.61   36.5329    0.3504
    9   1218.61   36.5329    0.3504
   10   1450.16   43.4747    0.0000
   11   1450.16   43.4747    0.0000
   12   2928.26   87.7872    0.0000
   13   3054.99   91.5862    0.3192
   14   3054.99   91.5862    0.3192
   15   3054.99   91.5862    0.3192

     DYNMAT       :     0.01s CPU         0.02s WALL


   This run was terminated on:  11: 0: 7   7Dec2016            

=------------------------------------------------------------------------------=
   JOB DONE.
=------------------------------------------------------------------------------=
