
     Program PHONON v.5.0.99 (svn rev. 10851) starts on  8Apr2014 at 17:52:16 

     This program is part of the open-source Quantum ESPRESSO suite
     for quantum simulation of materials; please cite
         "P. Giannozzi et al., J. Phys.:Condens. Matter 21 395502 (2009);
          URL http://www.quantum-espresso.org", 
     in publications or presentations arising from this work. More details at
     http://www.quantum-espresso.org/quote

     Parallel version (MPI), running on     4 processors
     R & G space division:  proc/nbgrp/npool/nimage =       4

   Info: using nr1, nr2, nr3 values from input

   Info: using nr1s, nr2s, nr3s values from input

     IMPORTANT: XC functional enforced from input :
     Exchange-correlation      =  SLA  PZ   NOGX NOGC ( 1  1  0  0 0)
     Any further DFT definition will be discarded
     Please, verify this is what you really want

               file H.pz-vbc.UPF: wavefunction(s)  1S renormalized
               file C.pz-rrkjus.UPF: wavefunction(s)  2S renormalized

     Parallelization info
     --------------------
     sticks:   dense  smooth     PW     G-vecs:    dense   smooth      PW
     Min         446     446    109                14262    14262    1779
     Max         448     448    110                14264    14264    1784
     Sum        1789    1789    437                57051    57051    7123


     negative rho (up, down):  7.905E-03 0.000E+00

     Calculation of q =    0.0000000   0.0000000   0.0000000

                                                                                

     bravais-lattice index     =            1
     lattice parameter (alat)  =      15.0000  a.u.
     unit-cell volume          =    3375.0000 (a.u.)^3
     number of atoms/cell      =            5
     number of atomic types    =            2
     kinetic-energy cut-off    =      25.0000  Ry
     charge density cut-off    =     100.0000  Ry
     convergence threshold     =      4.0E-17
     beta                      =       0.7000
     number of iterations used =            4
     Exchange-correlation      =  SLA  PZ   NOGX NOGC ( 1  1  0  0 0)


     celldm(1)=   15.00000  celldm(2)=    0.00000  celldm(3)=    0.00000
     celldm(4)=    0.00000  celldm(5)=    0.00000  celldm(6)=    0.00000

     crystal axes: (cart. coord. in units of alat)
               a(1) = (  1.0000  0.0000  0.0000 )  
               a(2) = (  0.0000  1.0000  0.0000 )  
               a(3) = (  0.0000  0.0000  1.0000 )  

     reciprocal axes: (cart. coord. in units 2 pi/alat)
               b(1) = (  1.0000  0.0000  0.0000 )  
               b(2) = (  0.0000  1.0000  0.0000 )  
               b(3) = (  0.0000  0.0000  1.0000 )  


     Atoms inside the unit cell: 

     Cartesian axes

     site n.  atom      mass           positions (alat units)
        1     H    1.0000   tau(    1) = (    0.08073    0.08073    0.08073  )
        2     H    1.0000   tau(    2) = (   -0.08073   -0.08073    0.08073  )
        3     H    1.0000   tau(    3) = (    0.08073   -0.08073   -0.08073  )
        4     H    1.0000   tau(    4) = (   -0.08073    0.08073   -0.08073  )
        5     C   12.0000   tau(    5) = (    0.00000    0.00000    0.00000  )

     Computing dynamical matrix for 
                    q = (   0.0000000   0.0000000   0.0000000 )

     25 Sym.Ops. (with q -> -q+G )


     G cutoff =  569.9317  (  14263 G-vectors)     FFT grid: ( 48, 48, 48)
     number of k points=     1
                       cart. coord. in units 2pi/alat
        k(    1) = (   0.0000000   0.0000000   0.0000000), wk =   2.0000000

     PseudoPot. # 1 for H  read from file:
     /home/espresso/SVN/espresso/pseudo/H.pz-vbc.UPF
     MD5 check sum: 90becb985b714f09656c73597998d266
     Pseudo is Norm-conserving, Zval =  1.0
     Generated by new atomic code, or converted to UPF format
     Using radial grid of  131 points,  0 beta functions with: 

     PseudoPot. # 2 for C  read from file:
     /home/espresso/SVN/espresso/pseudo/C.pz-rrkjus.UPF
     MD5 check sum: a648be5dbf3fafdfb4e35f5396849845
     Pseudo is Ultrasoft, Zval =  4.0
     Generated by new atomic code, or converted to UPF format
     Using radial grid of 1425 points,  4 beta functions with: 
                l(1) =   0
                l(2) =   0
                l(3) =   1
                l(4) =   1
     Q(r) pseudized with 0 coefficients 


     Mode symmetry, T_d (-43m)  point group:

     k=gamma and q=gamma tricks are used


     Electric field:
     Dielectric constant and polarizability
     Born effective charges in two ways 


     Atomic displacements:
     There are  15 irreducible representations

     Representation     1      1 modes -A  To be done

     Representation     2      1 modes -A  To be done

     Representation     3      1 modes -A  To be done

     Representation     4      1 modes - Calculated using symmetry

     Representation     5      1 modes - Calculated using symmetry

     Representation     6      1 modes - Calculated using symmetry

     Representation     7      1 modes - Calculated using symmetry

     Representation     8      1 modes - Calculated using symmetry

     Representation     9      1 modes - Calculated using symmetry

     Representation    10      1 modes - Calculated using symmetry

     Representation    11      1 modes - Calculated using symmetry

     Representation    12      1 modes - Calculated using symmetry

     Representation    13      1 modes - Calculated using asr

     Representation    14      1 modes - Calculated using asr

     Representation    15      1 modes - Calculated using asr



     Alpha used in Ewald sum =   1.0000
     PHONON       :     1.66s CPU         1.68s WALL


     Electric Fields Calculation

      iter #   1 total cpu time :     2.6 secs   av.it.:   6.0
      thresh= 1.000E-02 alpha_mix =  0.700 |ddv_scf|^2 =  5.179E-08

      iter #   2 total cpu time :     3.1 secs   av.it.:  11.3
      thresh= 2.276E-05 alpha_mix =  0.700 |ddv_scf|^2 =  4.079E-09

      iter #   3 total cpu time :     3.6 secs   av.it.:  11.0
      thresh= 6.387E-06 alpha_mix =  0.700 |ddv_scf|^2 =  2.791E-10

      iter #   4 total cpu time :     4.0 secs   av.it.:  11.0
      thresh= 1.671E-06 alpha_mix =  0.700 |ddv_scf|^2 =  9.095E-13

      iter #   5 total cpu time :     4.5 secs   av.it.:  12.0
      thresh= 9.537E-08 alpha_mix =  0.700 |ddv_scf|^2 =  3.150E-14

      iter #   6 total cpu time :     5.0 secs   av.it.:  11.0
      thresh= 1.775E-08 alpha_mix =  0.700 |ddv_scf|^2 =  3.911E-15

      iter #   7 total cpu time :     5.5 secs   av.it.:  10.7
      thresh= 6.254E-09 alpha_mix =  0.700 |ddv_scf|^2 =  7.406E-17

      iter #   8 total cpu time :     5.9 secs   av.it.:  10.7
      thresh= 8.606E-10 alpha_mix =  0.700 |ddv_scf|^2 =  2.789E-19

     End of electric fields calculation

          Dielectric constant in cartesian axis 

          (       1.071774084       0.000000000       0.000000000 )
          (       0.000000000       1.071774084       0.000000000 )
          (       0.000000000       0.000000000       1.071774084 )

     Polarizability (a.u.)^3                    Polarizability (A^3)
     18.83      0.00      0.00             2.7898        0.0000        0.0000
      0.00     18.83      0.00             0.0000        2.7898        0.0000
      0.00      0.00     18.83             0.0000        0.0000        2.7898

          Effective charges (d Force / dE) in cartesian axis

           atom      1   H  
      Ex  (        0.03175       -0.05948       -0.05948 )
      Ey  (       -0.05948        0.03175       -0.05948 )
      Ez  (       -0.05948       -0.05948        0.03175 )
           atom      2   H  
      Ex  (        0.03175       -0.05948        0.05948 )
      Ey  (       -0.05948        0.03175        0.05948 )
      Ez  (        0.05948        0.05948        0.03175 )
           atom      3   H  
      Ex  (        0.03175        0.05948        0.05948 )
      Ey  (        0.05948        0.03175       -0.05948 )
      Ez  (        0.05948       -0.05948        0.03175 )
           atom      4   H  
      Ex  (        0.03175        0.05948       -0.05948 )
      Ey  (        0.05948        0.03175        0.05948 )
      Ez  (       -0.05948        0.05948        0.03175 )
           atom      5   C  
      Ex  (       -0.02687        0.00000        0.00000 )
      Ey  (        0.00000       -0.02687        0.00000 )
      Ez  (        0.00000        0.00000       -0.02687 )


     Representation #  1 mode #   1

     Self-consistent Calculation

      iter #   1 total cpu time :     6.6 secs   av.it.:   5.0
      thresh= 1.000E-02 alpha_mix =  0.700 |ddv_scf|^2 =  1.409E-08

      iter #   2 total cpu time :     6.8 secs   av.it.:  11.0
      thresh= 1.187E-05 alpha_mix =  0.700 |ddv_scf|^2 =  6.575E-09

      iter #   3 total cpu time :     6.9 secs   av.it.:   9.0
      thresh= 8.109E-06 alpha_mix =  0.700 |ddv_scf|^2 =  7.333E-11

      iter #   4 total cpu time :     7.1 secs   av.it.:  11.0
      thresh= 8.563E-07 alpha_mix =  0.700 |ddv_scf|^2 =  1.003E-11

      iter #   5 total cpu time :     7.3 secs   av.it.:  10.0
      thresh= 3.167E-07 alpha_mix =  0.700 |ddv_scf|^2 =  6.690E-13

      iter #   6 total cpu time :     7.5 secs   av.it.:  10.0
      thresh= 8.179E-08 alpha_mix =  0.700 |ddv_scf|^2 =  9.077E-15

      iter #   7 total cpu time :     7.6 secs   av.it.:  10.0
      thresh= 9.527E-09 alpha_mix =  0.700 |ddv_scf|^2 =  7.463E-17

      iter #   8 total cpu time :     7.8 secs   av.it.:  10.0
      thresh= 8.639E-10 alpha_mix =  0.700 |ddv_scf|^2 =  4.425E-18

     End of self-consistent calculation

     Convergence has been achieved 


     Representation #  2 mode #   2

     Self-consistent Calculation

      iter #   1 total cpu time :     7.9 secs   av.it.:   5.0
      thresh= 1.000E-02 alpha_mix =  0.700 |ddv_scf|^2 =  1.408E-08

      iter #   2 total cpu time :     8.1 secs   av.it.:  11.0
      thresh= 1.187E-05 alpha_mix =  0.700 |ddv_scf|^2 =  6.566E-09

      iter #   3 total cpu time :     8.3 secs   av.it.:   9.0
      thresh= 8.103E-06 alpha_mix =  0.700 |ddv_scf|^2 =  7.300E-11

      iter #   4 total cpu time :     8.4 secs   av.it.:  11.0
      thresh= 8.544E-07 alpha_mix =  0.700 |ddv_scf|^2 =  9.966E-12

      iter #   5 total cpu time :     8.6 secs   av.it.:  10.0
      thresh= 3.157E-07 alpha_mix =  0.700 |ddv_scf|^2 =  6.721E-13

      iter #   6 total cpu time :     8.8 secs   av.it.:  10.0
      thresh= 8.198E-08 alpha_mix =  0.700 |ddv_scf|^2 =  8.851E-15

      iter #   7 total cpu time :     8.9 secs   av.it.:  10.0
      thresh= 9.408E-09 alpha_mix =  0.700 |ddv_scf|^2 =  7.243E-17

      iter #   8 total cpu time :     9.1 secs   av.it.:  10.0
      thresh= 8.511E-10 alpha_mix =  0.700 |ddv_scf|^2 =  4.143E-18

     End of self-consistent calculation

     Convergence has been achieved 


     Representation #  3 mode #   3

     Self-consistent Calculation

      iter #   1 total cpu time :     9.2 secs   av.it.:   5.0
      thresh= 1.000E-02 alpha_mix =  0.700 |ddv_scf|^2 =  1.409E-08

      iter #   2 total cpu time :     9.4 secs   av.it.:  11.0
      thresh= 1.187E-05 alpha_mix =  0.700 |ddv_scf|^2 =  6.594E-09

      iter #   3 total cpu time :     9.6 secs   av.it.:   9.0
      thresh= 8.120E-06 alpha_mix =  0.700 |ddv_scf|^2 =  7.426E-11

      iter #   4 total cpu time :     9.7 secs   av.it.:  11.0
      thresh= 8.617E-07 alpha_mix =  0.700 |ddv_scf|^2 =  9.938E-12

      iter #   5 total cpu time :     9.9 secs   av.it.:  10.0
      thresh= 3.152E-07 alpha_mix =  0.700 |ddv_scf|^2 =  6.345E-13

      iter #   6 total cpu time :    10.1 secs   av.it.:  10.0
      thresh= 7.965E-08 alpha_mix =  0.700 |ddv_scf|^2 =  9.554E-15

      iter #   7 total cpu time :    10.2 secs   av.it.:   9.0
      thresh= 9.775E-09 alpha_mix =  0.700 |ddv_scf|^2 =  8.032E-17

      iter #   8 total cpu time :    10.4 secs   av.it.:  10.0
      thresh= 8.962E-10 alpha_mix =  0.700 |ddv_scf|^2 =  5.147E-18

     End of self-consistent calculation

     Convergence has been achieved 

     Number of q in the star =    1
     List of q in the star:
          1   0.000000000   0.000000000   0.000000000

          Dielectric constant in cartesian axis 

          (       1.071774084       0.000000000       0.000000000 )
          (       0.000000000       1.071774084       0.000000000 )
          (       0.000000000       0.000000000       1.071774084 )

     Polarizability (a.u.)^3                    Polarizability (A^3)
     18.83      0.00      0.00             2.7898        0.0000        0.0000
      0.00     18.83      0.00             0.0000        2.7898        0.0000
      0.00      0.00     18.83             0.0000        0.0000        2.7898

          Effective charges (d Force / dE) in cartesian axis

           atom      1   H  
      Ex  (        0.03175       -0.05948       -0.05948 )
      Ey  (       -0.05948        0.03175       -0.05948 )
      Ez  (       -0.05948       -0.05948        0.03175 )
           atom      2   H  
      Ex  (        0.03175       -0.05948        0.05948 )
      Ey  (       -0.05948        0.03175        0.05948 )
      Ez  (        0.05948        0.05948        0.03175 )
           atom      3   H  
      Ex  (        0.03175        0.05948        0.05948 )
      Ey  (        0.05948        0.03175       -0.05948 )
      Ez  (        0.05948       -0.05948        0.03175 )
           atom      4   H  
      Ex  (        0.03175        0.05948       -0.05948 )
      Ey  (        0.05948        0.03175        0.05948 )
      Ez  (       -0.05948        0.05948        0.03175 )
           atom      5   C  
      Ex  (       -0.02687        0.00000        0.00000 )
      Ey  (        0.00000       -0.02687        0.00000 )
      Ez  (        0.00000        0.00000       -0.02687 )

          Effective charges (d P / du) in cartesian axis 

           atom      1   H  
      Px  (        0.03175       -0.05948       -0.05948 )
      Py  (       -0.05948        0.03175       -0.05948 )
      Pz  (       -0.05948       -0.05948        0.03175 )
           atom      2   H  
      Px  (        0.03175       -0.05948        0.05948 )
      Py  (       -0.05948        0.03175        0.05948 )
      Pz  (        0.05948        0.05948        0.03175 )
           atom      3   H  
      Px  (        0.03175        0.05948        0.05948 )
      Py  (        0.05948        0.03175       -0.05948 )
      Pz  (        0.05948       -0.05948        0.03175 )
           atom      4   H  
      Px  (        0.03175        0.05948       -0.05948 )
      Py  (        0.05948        0.03175        0.05948 )
      Pz  (       -0.05948        0.05948        0.03175 )
           atom      5   C  
      Px  (       -0.12701       -0.00000       -0.00000 )
      Py  (       -0.00000       -0.12701       -0.00000 )
      Pz  (       -0.00000       -0.00000       -0.12701 )

     Diagonalizing the dynamical matrix

     q = (    0.000000000   0.000000000   0.000000000 ) 

 **************************************************************************
     freq (    1) =      -0.006443 [THz] =      -0.214920 [cm-1]
     freq (    2) =      -0.006415 [THz] =      -0.213989 [cm-1]
     freq (    3) =      -0.006395 [THz] =      -0.213312 [cm-1]
     freq (    4) =       1.045038 [THz] =      34.858730 [cm-1]
     freq (    5) =       1.045108 [THz] =      34.861053 [cm-1]
     freq (    6) =       1.045180 [THz] =      34.863463 [cm-1]
     freq (    7) =      36.534363 [THz] =    1218.655169 [cm-1]
     freq (    8) =      36.534374 [THz] =    1218.655533 [cm-1]
     freq (    9) =      36.534375 [THz] =    1218.655559 [cm-1]
     freq (   10) =      43.472820 [THz] =    1450.097200 [cm-1]
     freq (   11) =      43.472827 [THz] =    1450.097410 [cm-1]
     freq (   12) =      87.786893 [THz] =    2928.255558 [cm-1]
     freq (   13) =      91.590479 [THz] =    3055.129521 [cm-1]
     freq (   14) =      91.590485 [THz] =    3055.129713 [cm-1]
     freq (   15) =      91.590486 [THz] =    3055.129751 [cm-1]
 **************************************************************************

     Mode symmetry, T_d (-43m)  point group:

     freq (  1 -  1) =         -0.2  [cm-1]   -->   ?
     freq (  2 -  2) =         -0.2  [cm-1]   -->   ?
     freq (  3 -  3) =         -0.2  [cm-1]   -->   ?
     freq (  4 -  4) =         34.9  [cm-1]   -->   ?
     freq (  5 -  5) =         34.9  [cm-1]   -->   ?
     freq (  6 -  6) =         34.9  [cm-1]   -->   ?
     freq (  7 -  9) =       1218.7  [cm-1]   --> T_2  G_15 P_4   I+R
     freq ( 10 - 11) =       1450.1  [cm-1]   --> E    G_12 P_3   R  
     freq ( 12 - 12) =       2928.3  [cm-1]   --> A_1  G_1  P_1   R  
     freq ( 13 - 15) =       3055.1  [cm-1]   --> T_2  G_15 P_4   I+R

     PHONON       :    10.20s CPU        10.44s WALL

     INITIALIZATION: 
     phq_setup    :      0.01s CPU      0.01s WALL (       1 calls)
     phq_init     :      1.29s CPU      1.30s WALL (       1 calls)

     phq_init     :      1.29s CPU      1.30s WALL (       1 calls)
     init_vloc    :      0.02s CPU      0.02s WALL (       1 calls)
     init_us_1    :      0.11s CPU      0.11s WALL (       1 calls)
     newd         :      0.01s CPU      0.02s WALL (       1 calls)
     dvanqq       :      0.23s CPU      0.23s WALL (       1 calls)
     drho         :      0.39s CPU      0.40s WALL (       1 calls)
     cmpt_qdipol  :      0.00s CPU      0.00s WALL (       1 calls)

     DIELECTRIC CONSTANT AND EFFECTIVE CHARGES:
     solve_e      :      4.17s CPU      4.26s WALL (       1 calls)
     dielec       :      0.00s CPU      0.00s WALL (       1 calls)
     zstar_eu     :      0.55s CPU      0.56s WALL (       1 calls)

     DYNAMICAL MATRIX:
     dynmat0      :      0.09s CPU      0.09s WALL (       1 calls)
     phqscf       :      3.80s CPU      3.91s WALL (       1 calls)
     dynmatrix    :      0.01s CPU      0.02s WALL (       1 calls)

     phqscf       :      3.80s CPU      3.91s WALL (       1 calls)
     solve_linter :      3.69s CPU      3.79s WALL (       3 calls)
     drhodv       :      0.09s CPU      0.09s WALL (       3 calls)
     add_zstar_ue :      0.00s CPU      0.00s WALL (       3 calls)
     add_zstar_us :      0.02s CPU      0.02s WALL (       3 calls)

     dynmat0      :      0.09s CPU      0.09s WALL (       1 calls)
     dynmat_us    :      0.04s CPU      0.04s WALL (       1 calls)
     d2ionq       :      0.05s CPU      0.05s WALL (       1 calls)

     dynmat_us    :      0.04s CPU      0.04s WALL (       1 calls)
     addusdynmat  :      0.00s CPU      0.00s WALL (       1 calls)

     phqscf       :      3.80s CPU      3.91s WALL (       1 calls)
     solve_linter :      3.69s CPU      3.79s WALL (       3 calls)

     solve_linter :      3.69s CPU      3.79s WALL (       3 calls)
     dvqpsi_us    :      0.18s CPU      0.18s WALL (      18 calls)
     ortho        :      0.02s CPU      0.03s WALL (      51 calls)
     cgsolve      :      5.16s CPU      5.18s WALL (      51 calls)
     incdrhoscf   :      0.46s CPU      0.46s WALL (      51 calls)
     addusddens   :      0.67s CPU      0.68s WALL (      39 calls)
     vpsifft      :      0.17s CPU      0.17s WALL (      21 calls)
     dv_of_drho   :      0.25s CPU      0.25s WALL (      51 calls)
     mix_pot      :      0.16s CPU      0.29s WALL (      32 calls)
     newdq        :      0.72s CPU      0.72s WALL (      32 calls)
     adddvscf     :      0.01s CPU      0.01s WALL (      42 calls)
     drhodvus     :      0.00s CPU      0.01s WALL (       3 calls)

     dvqpsi_us    :      0.18s CPU      0.18s WALL (      18 calls)
     dvqpsi_us_on :      0.01s CPU      0.01s WALL (      18 calls)

     cgsolve      :      5.16s CPU      5.18s WALL (      51 calls)
     ch_psi       :      5.00s CPU      5.03s WALL (     601 calls)

     ch_psi       :      5.00s CPU      5.03s WALL (     601 calls)
     h_psiq       :      4.66s CPU      4.69s WALL (     601 calls)
     last         :      0.30s CPU      0.31s WALL (     601 calls)

     h_psiq       :      4.66s CPU      4.69s WALL (     601 calls)
     firstfft     :      2.16s CPU      2.16s WALL (    2237 calls)
     secondfft    :      2.01s CPU      2.02s WALL (    2237 calls)
     add_vuspsi   :      0.08s CPU      0.09s WALL (     601 calls)

     incdrhoscf   :      0.46s CPU      0.46s WALL (      51 calls)
     addusdbec    :      0.01s CPU      0.02s WALL (      66 calls)

     drhodvus     :      0.00s CPU      0.01s WALL (       3 calls)

      General routines
     calbec       :      0.29s CPU      0.27s WALL (    1779 calls)
     fft          :      0.40s CPU      0.39s WALL (     273 calls)
     ffts         :      0.10s CPU      0.11s WALL (      78 calls)
     fftw         :      4.84s CPU      4.83s WALL (    5426 calls)
     davcio       :      0.01s CPU      0.16s WALL (     680 calls)
     write_rec    :      0.04s CPU      0.07s WALL (      35 calls)


     PHONON       :    10.20s CPU        10.44s WALL


   This run was terminated on:  17:52:27   8Apr2014            

=------------------------------------------------------------------------------=
   JOB DONE.
=------------------------------------------------------------------------------=
