
     Program PWSCF v.6.beta (svn rev. 13007) starts on 23Sep2016 at 10:55:18 

     This program is part of the open-source Quantum ESPRESSO suite
     for quantum simulation of materials; please cite
         "P. Giannozzi et al., J. Phys.:Condens. Matter 21 395502 (2009);
          URL http://www.quantum-espresso.org", 
     in publications or presentations arising from this work. More details at
     http://www.quantum-espresso.org/quote

           HOST :    @host@
           ARCH :    x86_64
             CC :    cc
            CPP :    cpp
            F90 :    mpif90
            F77 :    gfortran
         DFLAGS :    -D__GFORTRAN -D__STD_F95 -D__FFTW -D__MPI
      BLAS LIBS :    
    LAPACK LIBS :    $(TOPDIR)/LAPACK/liblapack.a $(TOPDIR)/LAPACK/libblas.a
       FFT LIBS :    
      MASS LIBS :    

     Parallel version (MPI), running on     2 processors
     R & G space division:  proc/nbgrp/npool/nimage =       2
     Waiting for input...
     Reading input from standard input

     Current dimensions of program PWSCF are:
     Max number of different atomic species (ntypx) = 10
     Max number of k-points (npk) =  40000
     Max angular momentum in pseudopotentials (lmaxx) =  3
               file H.pz-vbc.UPF: wavefunction(s)  1S renormalized
               file C.pz-rrkjus.UPF: wavefunction(s)  2S renormalized

     Subspace diagonalization in iterative solution of the eigenvalue problem:
     a serial algorithm will be used


     Parallelization info
     --------------------
     sticks:   dense  smooth     PW     G-vecs:    dense   smooth      PW
     Min         894     894    218                28525    28525    3560
     Max         895     895    219                28526    28526    3563
     Sum        1789    1789    437                57051    57051    7123



     bravais-lattice index     =            1
     lattice parameter (alat)  =      15.0000  a.u.
     unit-cell volume          =    3375.0000 (a.u.)^3
     number of atoms/cell      =            5
     number of atomic types    =            2
     number of electrons       =         8.00
     number of Kohn-Sham states=            4
     kinetic-energy cutoff     =      25.0000  Ry
     charge density cutoff     =     100.0000  Ry
     convergence threshold     =      1.0E-08
     mixing beta               =       0.5000
     number of iterations used =            8  plain     mixing
     Exchange-correlation      =  SLA  PZ   NOGX NOGC ( 1  1  0  0 0 0)

     celldm(1)=  15.000000  celldm(2)=   0.000000  celldm(3)=   0.000000
     celldm(4)=   0.000000  celldm(5)=   0.000000  celldm(6)=   0.000000

     crystal axes: (cart. coord. in units of alat)
               a(1) = (   1.000000   0.000000   0.000000 )  
               a(2) = (   0.000000   1.000000   0.000000 )  
               a(3) = (   0.000000   0.000000   1.000000 )  

     reciprocal axes: (cart. coord. in units 2 pi/alat)
               b(1) = (  1.000000  0.000000  0.000000 )  
               b(2) = (  0.000000  1.000000  0.000000 )  
               b(3) = (  0.000000  0.000000  1.000000 )  


     PseudoPot. # 1 for H  read from file:
     /home/pietro/trunk/espresso/pseudo/H.pz-vbc.UPF
     MD5 check sum: 90becb985b714f09656c73597998d266
     Pseudo is Norm-conserving, Zval =  1.0
     Generated by new atomic code, or converted to UPF format
     Using radial grid of  131 points,  0 beta functions with: 

     PseudoPot. # 2 for C  read from file:
     /home/pietro/trunk/espresso/pseudo/C.pz-rrkjus.UPF
     MD5 check sum: a648be5dbf3fafdfb4e35f5396849845
     Pseudo is Ultrasoft, Zval =  4.0
     Generated by new atomic code, or converted to UPF format
     Using radial grid of 1425 points,  4 beta functions with: 
                l(1) =   0
                l(2) =   0
                l(3) =   1
                l(4) =   1
     Q(r) pseudized with 0 coefficients 


     atomic species   valence    mass     pseudopotential
        H              1.00     1.00000     H ( 1.00)
        C              4.00    12.00000     C ( 1.00)

     24 Sym. Ops. (no inversion) found



   Cartesian axes

     site n.     atom                  positions (alat units)
         1           H   tau(   1) = (   0.0807289   0.0807289   0.0807289  )
         2           H   tau(   2) = (  -0.0807289  -0.0807289   0.0807289  )
         3           H   tau(   3) = (   0.0807289  -0.0807289  -0.0807289  )
         4           H   tau(   4) = (  -0.0807289   0.0807289  -0.0807289  )
         5           C   tau(   5) = (   0.0000000   0.0000000   0.0000000  )

     number of k points=     1
                       cart. coord. in units 2pi/alat
        k(    1) = (   0.0000000   0.0000000   0.0000000), wk =   2.0000000

     Dense  grid:    57051 G-vectors     FFT dimensions: (  48,  48,  48)

     Estimated max dynamical RAM per process >      18.06Mb

     Estimated total allocated dynamical RAM >      36.11Mb

     Initial potential from superposition of free atoms
     Check: negative starting charge=   -0.004620

     starting charge    7.99985, renormalised to    8.00000

     negative rho (up, down):  4.620E-03 0.000E+00
     Starting wfc are    8 randomized atomic wfcs

     total cpu time spent up to now is        0.5 secs

     per-process dynamical memory:    20.9 Mb

     Self-consistent Calculation

     iteration #  1     ecut=    25.00 Ry     beta=0.50
     Davidson diagonalization with overlap
     ethr =  1.00E-02,  avg # of iterations =  2.0

     negative rho (up, down):  6.285E-03 0.000E+00

     total cpu time spent up to now is        0.5 secs

     total energy              =     -15.82849614 Ry
     Harris-Foulkes estimate   =     -16.28217514 Ry
     estimated scf accuracy    <       0.76960679 Ry

     iteration #  2     ecut=    25.00 Ry     beta=0.50
     Davidson diagonalization with overlap
     ethr =  9.62E-03,  avg # of iterations =  2.0

     negative rho (up, down):  6.342E-03 0.000E+00

     total cpu time spent up to now is        0.6 secs

     total energy              =     -15.99743869 Ry
     Harris-Foulkes estimate   =     -16.01774534 Ry
     estimated scf accuracy    <       0.04908426 Ry

     iteration #  3     ecut=    25.00 Ry     beta=0.50
     Davidson diagonalization with overlap
     ethr =  6.14E-04,  avg # of iterations =  2.0

     negative rho (up, down):  8.614E-03 0.000E+00

     total cpu time spent up to now is        0.7 secs

     total energy              =     -15.99958271 Ry
     Harris-Foulkes estimate   =     -16.00491884 Ry
     estimated scf accuracy    <       0.01250653 Ry

     iteration #  4     ecut=    25.00 Ry     beta=0.50
     Davidson diagonalization with overlap
     ethr =  1.56E-04,  avg # of iterations =  2.0

     negative rho (up, down):  7.762E-03 0.000E+00

     total cpu time spent up to now is        0.8 secs

     total energy              =     -16.00001109 Ry
     Harris-Foulkes estimate   =     -16.00244704 Ry
     estimated scf accuracy    <       0.00549105 Ry

     iteration #  5     ecut=    25.00 Ry     beta=0.50
     Davidson diagonalization with overlap
     ethr =  6.86E-05,  avg # of iterations =  1.0

     negative rho (up, down):  7.787E-03 0.000E+00

     total cpu time spent up to now is        0.8 secs

     total energy              =     -16.00029598 Ry
     Harris-Foulkes estimate   =     -16.00034100 Ry
     estimated scf accuracy    <       0.00025842 Ry

     iteration #  6     ecut=    25.00 Ry     beta=0.50
     Davidson diagonalization with overlap
     ethr =  3.23E-06,  avg # of iterations =  3.0

     negative rho (up, down):  7.871E-03 0.000E+00

     total cpu time spent up to now is        0.9 secs

     total energy              =     -16.00035794 Ry
     Harris-Foulkes estimate   =     -16.00037542 Ry
     estimated scf accuracy    <       0.00004131 Ry

     iteration #  7     ecut=    25.00 Ry     beta=0.50
     Davidson diagonalization with overlap
     ethr =  5.16E-07,  avg # of iterations =  2.0

     negative rho (up, down):  7.886E-03 0.000E+00

     total cpu time spent up to now is        1.0 secs

     total energy              =     -16.00036283 Ry
     Harris-Foulkes estimate   =     -16.00036493 Ry
     estimated scf accuracy    <       0.00000848 Ry

     iteration #  8     ecut=    25.00 Ry     beta=0.50
     Davidson diagonalization with overlap
     ethr =  1.06E-07,  avg # of iterations =  2.0

     negative rho (up, down):  7.884E-03 0.000E+00

     total cpu time spent up to now is        1.1 secs

     total energy              =     -16.00036267 Ry
     Harris-Foulkes estimate   =     -16.00036389 Ry
     estimated scf accuracy    <       0.00000491 Ry

     iteration #  9     ecut=    25.00 Ry     beta=0.50
     Davidson diagonalization with overlap
     ethr =  6.13E-08,  avg # of iterations =  1.0

     negative rho (up, down):  7.886E-03 0.000E+00

     total cpu time spent up to now is        1.2 secs

     total energy              =     -16.00036208 Ry
     Harris-Foulkes estimate   =     -16.00036272 Ry
     estimated scf accuracy    <       0.00000232 Ry

     iteration # 10     ecut=    25.00 Ry     beta=0.50
     Davidson diagonalization with overlap
     ethr =  2.90E-08,  avg # of iterations =  1.0

     negative rho (up, down):  7.888E-03 0.000E+00

     total cpu time spent up to now is        1.3 secs

     total energy              =     -16.00036217 Ry
     Harris-Foulkes estimate   =     -16.00036224 Ry
     estimated scf accuracy    <       0.00000046 Ry

     iteration # 11     ecut=    25.00 Ry     beta=0.50
     Davidson diagonalization with overlap
     ethr =  5.75E-09,  avg # of iterations =  1.0

     negative rho (up, down):  7.890E-03 0.000E+00

     total cpu time spent up to now is        1.3 secs

     total energy              =     -16.00036214 Ry
     Harris-Foulkes estimate   =     -16.00036218 Ry
     estimated scf accuracy    <       0.00000028 Ry

     iteration # 12     ecut=    25.00 Ry     beta=0.50
     Davidson diagonalization with overlap
     ethr =  3.54E-09,  avg # of iterations =  1.0

     negative rho (up, down):  7.892E-03 0.000E+00

     total cpu time spent up to now is        1.4 secs

     total energy              =     -16.00036216 Ry
     Harris-Foulkes estimate   =     -16.00036216 Ry
     estimated scf accuracy    <       0.00000012 Ry

     iteration # 13     ecut=    25.00 Ry     beta=0.50
     Davidson diagonalization with overlap
     ethr =  1.55E-09,  avg # of iterations =  1.0

     negative rho (up, down):  7.899E-03 0.000E+00

     total cpu time spent up to now is        1.5 secs

     total energy              =     -16.00036215 Ry
     Harris-Foulkes estimate   =     -16.00036216 Ry
     estimated scf accuracy    <       0.00000011 Ry

     iteration # 14     ecut=    25.00 Ry     beta=0.50
     Davidson diagonalization with overlap
     ethr =  1.32E-09,  avg # of iterations =  1.0

     negative rho (up, down):  7.906E-03 0.000E+00

     total cpu time spent up to now is        1.6 secs

     total energy              =     -16.00036214 Ry
     Harris-Foulkes estimate   =     -16.00036215 Ry
     estimated scf accuracy    <       0.00000004 Ry

     iteration # 15     ecut=    25.00 Ry     beta=0.50
     Davidson diagonalization with overlap
     ethr =  4.88E-10,  avg # of iterations =  1.0

     negative rho (up, down):  7.905E-03 0.000E+00

     total cpu time spent up to now is        1.6 secs

     total energy              =     -16.00036213 Ry
     Harris-Foulkes estimate   =     -16.00036214 Ry
     estimated scf accuracy    <       0.00000002 Ry

     iteration # 16     ecut=    25.00 Ry     beta=0.50
     Davidson diagonalization with overlap
     ethr =  2.78E-10,  avg # of iterations =  2.0

     negative rho (up, down):  7.905E-03 0.000E+00

     total cpu time spent up to now is        1.7 secs

     End of self-consistent calculation

          k = 0.0000 0.0000 0.0000 (  7123 PWs)   bands (ev):

   -16.4340  -8.9762  -8.9762  -8.9762

     highest occupied level (ev):    -8.9762

!    total energy              =     -16.00036214 Ry
     Harris-Foulkes estimate   =     -16.00036214 Ry
     estimated scf accuracy    <          6.7E-10 Ry

     The total energy is the sum of the following terms:

     one-electron contribution =     -35.04005732 Ry
     hartree contribution      =      18.32676240 Ry
     xc contribution           =      -6.11313040 Ry
     ewald contribution        =       6.82606317 Ry

     convergence has been achieved in  16 iterations

     Forces acting on atoms (Ry/au):

     atom    1 type  1   force =     0.00000289    0.00000289    0.00000289
     atom    2 type  1   force =    -0.00000289   -0.00000289    0.00000289
     atom    3 type  1   force =     0.00000289   -0.00000289   -0.00000289
     atom    4 type  1   force =    -0.00000289    0.00000289   -0.00000289
     atom    5 type  2   force =     0.00000000    0.00000000    0.00000000

     Total force =     0.000010     Total SCF correction =     0.000013
     SCF correction compared to forces is large: reduce conv_thr to get better values

     Writing output data file ch4.save

     init_run     :      0.41s CPU      0.41s WALL (       1 calls)
     electrons    :      1.25s CPU      1.27s WALL (       1 calls)
     forces       :      0.07s CPU      0.07s WALL (       1 calls)

     Called by init_run:
     wfcinit      :      0.02s CPU      0.02s WALL (       1 calls)
     potinit      :      0.03s CPU      0.03s WALL (       1 calls)

     Called by electrons:
     c_bands      :      0.33s CPU      0.33s WALL (      16 calls)
     sum_band     :      0.41s CPU      0.42s WALL (      16 calls)
     v_of_rho     :      0.12s CPU      0.12s WALL (      17 calls)
     newd         :      0.28s CPU      0.30s WALL (      17 calls)
     mix_rho      :      0.10s CPU      0.11s WALL (      16 calls)

     Called by c_bands:
     init_us_2    :      0.02s CPU      0.03s WALL (      33 calls)
     cegterg      :      0.31s CPU      0.31s WALL (      16 calls)

     Called by sum_band:
     sum_band:bec :      0.00s CPU      0.00s WALL (      16 calls)
     addusdens    :      0.27s CPU      0.27s WALL (      16 calls)

     Called by *egterg:
     h_psi        :      0.26s CPU      0.28s WALL (      42 calls)
     s_psi        :      0.02s CPU      0.01s WALL (      42 calls)
     g_psi        :      0.00s CPU      0.00s WALL (      25 calls)
     cdiaghg      :      0.00s CPU      0.00s WALL (      41 calls)

     Called by h_psi:
     h_psi:pot    :      0.26s CPU      0.28s WALL (      42 calls)
     h_psi:calbec :      0.00s CPU      0.01s WALL (      42 calls)
     vloc_psi     :      0.25s CPU      0.26s WALL (      42 calls)
     add_vuspsi   :      0.01s CPU      0.01s WALL (      42 calls)

     General routines
     calbec       :      0.01s CPU      0.01s WALL (      62 calls)
     fft          :      0.12s CPU      0.15s WALL (     103 calls)
     fftw         :      0.28s CPU      0.29s WALL (     402 calls)
     davcio       :      0.00s CPU      0.00s WALL (       1 calls)

     Parallel routines
     fft_scatter  :      0.06s CPU      0.07s WALL (     505 calls)

     PWSCF        :     1.80s CPU         1.82s WALL


   This run was terminated on:  10:55:20  23Sep2016            

=------------------------------------------------------------------------------=
   JOB DONE.
=------------------------------------------------------------------------------=
