 ANIMSTEPS   7
 CRYSTAL 
 PRIMVEC 
  6.3501265031  0.0000000000  0.0000000000
  0.0000000000  2.6458860429  0.0000000000
  0.0000000000  0.0000000000  2.6458860429
 PRIMCOORD   1
    3  1
 H   -2.4165936061    0.0000000000    0.0000000000   -0.0004988244    0.0000000000    0.0000000000
 H    0.0000000000    0.0000000000    0.0000000000    0.0000000000    0.0000000000    0.0000000000
 H    0.8243346657    0.0000000000    0.0000000000    0.0001471169    0.0000000000    0.0000000000
 PRIMCOORD   2
    3  1
 H   -1.8714888224    0.0000000000    0.0000000000   -0.0048498460    0.0000000000    0.0000000000
 H    0.0000000000    0.0000000000    0.0000000000    0.0000000000    0.0000000000    0.0000000000
 H    0.8349543465    0.0000000000    0.0000000000   -0.0011321616    0.0000000000    0.0000000000
 PRIMCOORD   3
    3  1
 H   -1.4066572968    0.0000000000    0.0000000000   -0.0086866838    0.0000000000    0.0000000000
 H    0.0000000000    0.0000000000    0.0000000000    0.0000000000    0.0000000000    0.0000000000
 H    0.8818770137    0.0000000000    0.0000000000   -0.0052976192    0.0000000000    0.0000000000
 PRIMCOORD   4
    3  1
 H   -1.0525833550    0.0000000000    0.0000000000    0.0006360705   -0.0000000000    0.0000000000
 H    0.0000000000    0.0000000000    0.0000000000    0.0000000000    0.0000000000    0.0000000000
 H    1.0525658480    0.0000000000    0.0000000000   -0.0006360705    0.0000000000    0.0000000000
 PRIMCOORD   5
    3  1
 H   -0.8818808868    0.0000000000    0.0000000000    0.0052979215    0.0000000000    0.0000000000
 H    0.0000000000    0.0000000000    0.0000000000   -0.0000000000    0.0000000000    0.0000000000
 H    1.4066399123    0.0000000000    0.0000000000    0.0086865992    0.0000000000    0.0000000000
 PRIMCOORD   6
    3  1
 H   -0.8349547292    0.0000000000    0.0000000000    0.0011321724    0.0000000000    0.0000000000
 H    0.0000000000    0.0000000000    0.0000000000   -0.0000000000    0.0000000000    0.0000000000
 H    1.8714775765    0.0000000000    0.0000000000    0.0048499994    0.0000000000    0.0000000000
 PRIMCOORD   7
    3  1
 H   -0.8243346657    0.0000000000    0.0000000000   -0.0001422729    0.0000000000    0.0000000000
 H    0.0000000000    0.0000000000    0.0000000000   -0.0000000000    0.0000000000    0.0000000000
 H    2.4165936061    0.0000000000    0.0000000000    0.0004329512    0.0000000000    0.0000000000
