 RUNNING ,mpirun -np 4 /home/pdelugas/q-e/test-suite/..//bin/cp.x -nk 1 -nd 1 -nb 1 -nt 1 -input nspin1.in

     Program CP v.7.5 starts on  2Jul2025 at 10:40:45 

     This program is part of the open-source Quantum ESPRESSO suite
     for quantum simulation of materials; please cite
         "P. Giannozzi et al., J. Phys.:Condens. Matter 21 395502 (2009);
         "P. Giannozzi et al., J. Phys.:Condens. Matter 29 465901 (2017);
         "P. Giannozzi et al., J. Chem. Phys. 152 154105 (2020);
          URL http://www.quantum-espresso.org", 
     in publications or presentations arising from this work. More details at
     http://www.quantum-espresso.org/quote

     Parallel version (MPI), running on     4 processors

     MPI processes distributed on     1 nodes
     R & G space division:  proc/nbgrp/npool/nimage =       4
     2478 MiB available memory on the printing compute node when the environment starts

     Reading input from nspin1.in

   Job Title:  Water Molecule


   Atomic Pseudopotentials Parameters
   ----------------------------------

   Reading pseudopotential for specie #  1 from file :
   /home/pdelugas/q-e/test-suite/..//pseudo/O.blyp-mt.UPF
file format is UPF v.2

   Reading pseudopotential for specie #  2 from file :
   /home/pdelugas/q-e/test-suite/..//pseudo/H.blyp-vbc.UPF
file format is UPF v.2

     IMPORTANT: XC functional enforced from input :
     Exchange-correlation= SCAN
                           (   0   0   0   0   0 263 267)
     Any further DFT definition will be discarded
     Please, verify this is what you really want



   Main Simulation Parameters (from input)
   ---------------------------------------
   Restart Mode       =      -1   from_scratch   
   Number of MD Steps =     400
   Print out every            1 MD Steps
   Reads from unit    =      50
   Writes to unit     =      50
   MD Simulation time step            =       5.00
   Electronic fictitious mass (emass) =     400.00
   emass cut-off                      =       2.50

   Simulation Cell Parameters (from input)
   external pressure       =            0.00 [KBar]
   wmass (calculated)      =         2493.41 [AU]
   ibrav =    1
   alat  =    12.00000000
   a1    =    12.00000000    0.00000000    0.00000000
   a2    =     0.00000000   12.00000000    0.00000000
   a3    =     0.00000000    0.00000000   12.00000000

   b1    =     0.08333333    0.00000000    0.00000000
   b2    =     0.00000000    0.08333333    0.00000000
   b3    =     0.00000000    0.00000000    0.08333333
   omega =    1728.00000000

   Energy Cut-offs
   ---------------
   Ecutwfc =   40.0 Ry,      Ecutrho =  160.0 Ry,      Ecuts =  160.0 Ry
   Gcutwfc =   12.1     ,    Gcutrho =   24.2          Gcuts =   24.2
   NOTA BENE: refg, mmx =   0.050000  3840
   Eigenvalues calculated without the kinetic term contribution
   Orthog. with lagrange multipliers : eps =   0.10E-08,  max = 300
   verlet algorithm for electron dynamics
   with friction frice =  0.1000 , grease =  1.0000
   Electron dynamics : the temperature is not controlled
   initial random displacement of el. coordinates with  amplitude=  0.020000

   Electronic states
   -----------------
   Number of Electrons=     8, of States =     4
   Occupation numbers :
   2.00 2.00 2.00 2.00


   Exchange and correlations functionals
   -------------------------------------
     Exchange-correlation= SCAN
                           (   0   0   0   0   0 263 267)


   Ions Simulation Parameters
   --------------------------
   Ions are not allowed to move
   Ionic position (from input)
   sorted by specie, and converted to real a.u. coordinates
   Species   1 atoms =    1 mass =     29166.22 (a.u.),        16.00 (amu) rcmax =   0.50 (a.u.)
        0.009900     0.009900     0.000000
   Species   2 atoms =    2 mass =      1822.89 (a.u.),         1.00 (amu) rcmax =   0.50 (a.u.)
        1.832500    -0.224300    -0.000100
       -0.224300     1.832500     0.000200
   Ionic position read from input file


   Cell Dynamics Parameters (from STDIN)
   -------------------------------------
   internal stress tensor calculated
   Starting cell generated from CELLDM
   Constant VOLUME Molecular dynamics
   cell parameters are not allowed to move

   Verbosity: iverbosity =  1



   Simulation dimensions initialization
   ------------------------------------

   unit vectors of full simulation cell
   in real space:                         in reciprocal space (units 2pi/alat):
   1    12.0000    0.0000    0.0000              1.0000    0.0000    0.0000
   2     0.0000   12.0000    0.0000              0.0000    1.0000    0.0000
   3     0.0000    0.0000   12.0000              0.0000    0.0000    1.0000

     Parallelization info
     --------------------
     sticks:   dense  smooth     PW     G-vecs:    dense   smooth      PW
     Min         455     455    112                14719    14719    1811
     Max         458     458    116                14726    14726    1814
     Sum        1829    1829    457                58893    58893    7249

     Using Slab Decomposition


   Real Mesh
   ---------
   Global Dimensions   Local  Dimensions   Processor Grid
   .X.   .Y.   .Z.     .X.   .Y.   .Z.     .X.   .Y.   .Z.
    50    50    50      50    50    13       1     1     4
   Array leading dimensions ( nr1x, nr2x, nr3x )   =     50    50    50
   Local number of cell to store the grid ( nrxx ) =      32500
   Number of x-y planes for each processors: 
  |  50,  13  |  50,  13  |  50,  12  |  50,  12  |
   Using Slab Decomposition

   Smooth Real Mesh
   ----------------
   Global Dimensions   Local  Dimensions   Processor Grid
   .X.   .Y.   .Z.     .X.   .Y.   .Z.     .X.   .Y.   .Z.
    50    50    50      50    50    13       1     1     4
   Array leading dimensions ( nr1x, nr2x, nr3x )   =     50    50    50
   Local number of cell to store the grid ( nrxx ) =      32500
   Number of x-y planes for each processors: 
  |  50,  13  |  50,  13  |  50,  12  |  50,  12  |
   Using Slab Decomposition

   Reciprocal Space Mesh
   ---------------------
   Large Mesh
     Global(ngm_g)    MinLocal       MaxLocal      Average
          29447           7360           7363        7361.75
   Smooth Mesh
     Global(ngms_g)   MinLocal       MaxLocal      Average
          29447           7360           7363        7361.75
   Wave function Mesh
     Global(ngw_g)    MinLocal       MaxLocal      Average
           3625            906            907         906.25


   System geometry initialization
   ------------------------------
   ibrav =    1       cell parameters read from input file
     Subspace diagonalization in iterative solution of the eigenvalue problem:
     a serial algorithm will be used


   Matrix Multiplication Performances
   ortho mmul, time for parallel driver      =   0.00000 with    1 procs

   Constraints matrixes will be distributed block like on
   ortho sub-group =    1*   1 procs



   Pseudopotentials initialization
   -------------------------------


   Common initialization

   Specie:     1
   1  indv=  1   ang. mom=  0

                        dion 
   0.2253

   Specie:     2

                        dion 

     WARNING: libxc functional with ID  263 depends
      on external parameters: check the user_guide of
      QE if you need to modify them or to check their
      default values.

   Cell parameters from input file are used in electron mass preconditioning
   init_tpiba2=    0.27415568

   Short Legend and Physical Units in the Output
   ---------------------------------------------
   NFI    [int]          - step index
   EKINC  [HARTREE A.U.] - kinetic energy of the fictitious electronic dynamics
   TEMPH  [K]            - Temperature of the fictitious cell dynamics
   TEMP   [K]            - Ionic temperature
   ETOT   [HARTREE A.U.] - Scf total energy (Kohn-Sham hamiltonian)
   ENTHAL [HARTREE A.U.] - Enthalpy ( ETOT + P * V )
   ECONS  [HARTREE A.U.] - Enthalpy + kinetic energy of ions and cell
   ECONT  [HARTREE A.U.] - Constant of motion for the CP lagrangian



   Wave Initialization: random initial wave-functions
   Occupation number from init
   nbnd =     4
    2.00 2.00 2.00 2.00

   formf: eself=    30.31961
   formf:     vps(g=0)=  -0.0020647     rhops(g=0)=  -0.0034132
   formf:     vps(g=0)=  -0.0020586     rhops(g=0)=  -0.0033552
   formf:     vps(g=0)=  -0.0020586     rhops(g=0)=  -0.0033552
   formf:     vps(g=0)=  -0.0020586     rhops(g=0)=  -0.0033552
   formf:     vps(g=0)=  -0.0020520     rhops(g=0)=  -0.0032982
   formf: sum_g vps(g)=  -1.7827723 sum_g rhops(g)=  -4.3110817
   formf:     vps(g=0)=  -0.0004762     rhops(g=0)=  -0.0005689
   formf:     vps(g=0)=  -0.0004718     rhops(g=0)=  -0.0005592
   formf:     vps(g=0)=  -0.0004718     rhops(g=0)=  -0.0005592
   formf:     vps(g=0)=  -0.0004718     rhops(g=0)=  -0.0005592
   formf:     vps(g=0)=  -0.0004675     rhops(g=0)=  -0.0005497
   formf: sum_g vps(g)=  -1.9554603 sum_g rhops(g)=  -0.7185136
   Delta V(G=0):   0.003636Ry,    0.098943eV

   from rhoofr: total integrated electronic density
   in g-space =      8.000000   in r-space =     8.000000
     Total Electronic Pressure (GPa)      134.62239      0

  nfi     ekinc              temph  tempp     etot                 enthal               econs                econt              vnhh    xnhh0   vnhp    xnhp0
      1    0.976663018391611    0.0    0.00      10.642000988531      10.642000988531      10.642000988531      11.618664006923   0.0000   0.0000   0.0000   0.0000
      2    2.769436372359420    0.0    0.00       8.091254270052       8.091254270052       8.091254270052      10.860690642411   0.0000   0.0000   0.0000   0.0000
      3    5.068101202930259    0.0    0.00       4.285852483681       4.285852483681       4.285852483681       9.353953686611   0.0000   0.0000   0.0000   0.0000
      4    7.573275583391111    0.0    0.00      -0.684352669791      -0.684352669791      -0.684352669791       6.888922913600   0.0000   0.0000   0.0000   0.0000
      5    8.983830120021882    0.0    0.00      -5.703870383376      -5.703870383376      -5.703870383376       3.279959736645   0.0000   0.0000   0.0000   0.0000
      6    7.556352603081621    0.0    0.00      -7.510715847816      -7.510715847816      -7.510715847816       0.045636755266   0.0000   0.0000   0.0000   0.0000
      7    4.656559192364270    0.0    0.00      -6.738857308656      -6.738857308656      -6.738857308656      -2.082298116291   0.0000   0.0000   0.0000   0.0000
      8    2.923769282856990    0.0    0.00      -6.451862546690      -6.451862546690      -6.451862546690      -3.528093263833   0.0000   0.0000   0.0000   0.0000
      9    2.654172814430300    0.0    0.00      -7.350753257202      -7.350753257202      -7.350753257202      -4.696580442772   0.0000   0.0000   0.0000   0.0000

 * Physical Quantities at step:    10

   from rhoofr: total integrated electronic density
   in g-space =      8.000000   in r-space =     8.000000
     Total Electronic Pressure (GPa)       37.53206     10
     Pressure of Nuclei (GPa)             0.00000     10
     Pressure Total (GPa)            37.53206     10


                total energy =       -8.83130495422 Hartree a.u.
              kinetic energy =        7.99778 Hartree a.u.
        electrostatic energy =      -15.95890 Hartree a.u.
                         esr =        0.00155 Hartree a.u.
                       eself =       30.31961 Hartree a.u.
      pseudopotential energy =       -2.26177 Hartree a.u.
  n-l pseudopotential energy =        3.84593 Hartree a.u.
 exchange-correlation energy =       -2.45435 Hartree a.u.
           average potential =        0.00000 Hartree a.u.



   Eigenvalues (eV), kp =   1 , spin =  1

  -79.12  -17.43   -7.61   -1.26


   CELL_PARAMETERS
   12.00000000    0.00000000    0.00000000
    0.00000000   12.00000000    0.00000000
    0.00000000    0.00000000   12.00000000

   System Density [g/cm^3] :              0.1167302083


   System Volume [A.U.^3] :           1728.0000000000


   Center of mass square displacement (a.u.):   0.000000

   Total stress (GPa)
       49.82874350        -3.73466749        -1.14441992
       -3.73466749        42.56255616        -0.60990008
       -1.14441992        -0.60990008        20.20489062
   ATOMIC_POSITIONS
   O       0.99000000000000E-02     0.99000000000000E-02     0.00000000000000E+00
   H       0.18325000000000E+01    -0.22430000000000E+00    -0.10000000000000E-03
   H      -0.22430000000000E+00     0.18325000000000E+01     0.20000000000000E-03

   ATOMIC_VELOCITIES
   O       0.00000000000000E+00     0.00000000000000E+00     0.00000000000000E+00
   H       0.00000000000000E+00     0.00000000000000E+00     0.00000000000000E+00
   H       0.00000000000000E+00     0.00000000000000E+00     0.00000000000000E+00

   Forces acting on atoms (au):
   O      -0.78964475717723E+00     0.89128591628940E+00     0.21977914733859E+00
   H       0.96157097377257E+00    -0.18098428169566E+00     0.42213692292731E-02
   H      -0.23051222267008E+00     0.95524629333505E+00     0.28120831558662E+00



   Partial temperatures (for each ionic specie) 
   Species  Temp (K)   Mean Square Displacement (a.u.)
        1   0.00E+00     0.0000E+00
        2   0.00E+00     0.0000E+00

  nfi     ekinc              temph  tempp     etot                 enthal               econs                econt              vnhh    xnhh0   vnhp    xnhp0
     10    2.922957457884466    0.0    0.00      -8.831304954224      -8.831304954224      -8.831304954224      -5.908347496340   0.0000   0.0000   0.0000   0.0000
     11    2.951565762131478    0.0    0.00     -10.072404260064     -10.072404260064     -10.072404260064      -7.120838497932   0.0000   0.0000   0.0000   0.0000
     12    2.604938533323326    0.0    0.00     -10.810274175980     -10.810274175980     -10.810274175980      -8.205335642657   0.0000   0.0000   0.0000   0.0000
     13    2.168638010016644    0.0    0.00     -11.298035099017     -11.298035099017     -11.298035099017      -9.129397089001   0.0000   0.0000   0.0000   0.0000
     14    1.847242358869153    0.0    0.00     -11.770052635780     -11.770052635780     -11.770052635780      -9.922810276910   0.0000   0.0000   0.0000   0.0000
     15    1.643854977483972    0.0    0.00     -12.267821488873     -12.267821488873     -12.267821488873     -10.623966511389   0.0000   0.0000   0.0000   0.0000
     16    1.490926806417007    0.0    0.00     -12.745435865610     -12.745435865610     -12.745435865610     -11.254509059193   0.0000   0.0000   0.0000   0.0000
     17    1.347862527661341    0.0    0.00     -13.169837765338     -13.169837765338     -13.169837765338     -11.821975237676   0.0000   0.0000   0.0000   0.0000
     18    1.213995649255370    0.0    0.00     -13.545572907491     -13.545572907491     -13.545572907491     -12.331577258235   0.0000   0.0000   0.0000   0.0000
     19    1.100922836013696    0.0    0.00     -13.893258026659     -13.893258026659     -13.893258026659     -12.792335190646   0.0000   0.0000   0.0000   0.0000

 * Physical Quantities at step:    20

   from rhoofr: total integrated electronic density
   in g-space =      8.000000   in r-space =     8.000000
     Total Electronic Pressure (GPa)        6.73129     20
     Pressure of Nuclei (GPa)             0.00000     20
     Pressure Total (GPa)             6.73129     20


                total energy =      -14.22462894364 Hartree a.u.
              kinetic energy =        9.92136 Hartree a.u.
        electrostatic energy =      -20.74325 Hartree a.u.
                         esr =        0.00155 Hartree a.u.
                       eself =       30.31961 Hartree a.u.
      pseudopotential energy =       -3.02009 Hartree a.u.
  n-l pseudopotential energy =        3.01114 Hartree a.u.
 exchange-correlation energy =       -3.39379 Hartree a.u.
           average potential =        0.00000 Hartree a.u.



   Eigenvalues (eV), kp =   1 , spin =  1

  -43.02  -26.89   -8.55   -3.61


   CELL_PARAMETERS
   12.00000000    0.00000000    0.00000000
    0.00000000   12.00000000    0.00000000
    0.00000000    0.00000000   12.00000000

   System Density [g/cm^3] :              0.1167302083


   System Volume [A.U.^3] :           1728.0000000000


   Center of mass square displacement (a.u.):   0.000000

   Total stress (GPa)
       14.35094378       -12.58457891         1.93920613
      -12.58457891         9.51218799         3.41523205
        1.93920613         3.41523205        -3.66927528
   ATOMIC_POSITIONS
   O       0.99000000000000E-02     0.99000000000000E-02     0.00000000000000E+00
   H       0.18325000000000E+01    -0.22430000000000E+00    -0.10000000000000E-03
   H      -0.22430000000000E+00     0.18325000000000E+01     0.20000000000000E-03

   ATOMIC_VELOCITIES
   O       0.00000000000000E+00     0.00000000000000E+00     0.00000000000000E+00
   H       0.00000000000000E+00     0.00000000000000E+00     0.00000000000000E+00
   H       0.00000000000000E+00     0.00000000000000E+00     0.00000000000000E+00

   Forces acting on atoms (au):
   O      -0.17222150024971E+00     0.19955875685874E+00     0.40259808205388E+00
   H       0.45985021116013E+00    -0.48702900197801E+00    -0.82689478444933E-01
   H      -0.26937597027183E+00     0.24209637309217E+00    -0.42584930074283E-01



   Partial temperatures (for each ionic specie) 
   Species  Temp (K)   Mean Square Displacement (a.u.)
        1   0.00E+00     0.0000E+00
        2   0.00E+00     0.0000E+00

  nfi     ekinc              temph  tempp     etot                 enthal               econs                econt              vnhh    xnhh0   vnhp    xnhp0
     20    1.010983589420144    0.0    0.00     -14.224628943637     -14.224628943637     -14.224628943637     -13.213645354216   0.0000   0.0000   0.0000   0.0000
     21    0.936513304096945    0.0    0.00     -14.539495042186     -14.539495042186     -14.539495042186     -13.602981738089   0.0000   0.0000   0.0000   0.0000
     22    0.867085861407864    0.0    0.00     -14.830850508810     -14.830850508810     -14.830850508810     -13.963764647402   0.0000   0.0000   0.0000   0.0000
     23    0.795382349096262    0.0    0.00     -15.091585067864     -15.091585067864     -15.091585067864     -14.296202718767   0.0000   0.0000   0.0000   0.0000
     24    0.719012446472491    0.0    0.00     -15.317823090695     -15.317823090695     -15.317823090695     -14.598810644223   0.0000   0.0000   0.0000   0.0000
     25    0.639186867636944    0.0    0.00     -15.509124411969     -15.509124411969     -15.509124411969     -14.869937544332   0.0000   0.0000   0.0000   0.0000
     26    0.558687619189000    0.0    0.00     -15.667560064074     -15.667560064074     -15.667560064074     -15.108872444885   0.0000   0.0000   0.0000   0.0000
     27    0.480982975662005    0.0    0.00     -15.796723092525     -15.796723092525     -15.796723092525     -15.315740116863   0.0000   0.0000   0.0000   0.0000
     28    0.410343571957967    0.0    0.00     -15.903285931546     -15.903285931546     -15.903285931546     -15.492942359588   0.0000   0.0000   0.0000   0.0000
     29    0.350015001478463    0.0    0.00     -15.993886308895     -15.993886308895     -15.993886308895     -15.643871307417   0.0000   0.0000   0.0000   0.0000

 * Physical Quantities at step:    30

   from rhoofr: total integrated electronic density
   in g-space =      8.000000   in r-space =     8.000000
     Total Electronic Pressure (GPa)       -0.60278     30
     Pressure of Nuclei (GPa)             0.00000     30
     Pressure Total (GPa)            -0.60278     30


                total energy =      -16.07493797532 Hartree a.u.
              kinetic energy =       12.27012 Hartree a.u.
        electrostatic energy =      -22.79240 Hartree a.u.
                         esr =        0.00155 Hartree a.u.
                       eself =       30.31961 Hartree a.u.
      pseudopotential energy =       -3.69912 Hartree a.u.
  n-l pseudopotential energy =        2.05613 Hartree a.u.
 exchange-correlation energy =       -3.90968 Hartree a.u.
           average potential =        0.00000 Hartree a.u.



   Eigenvalues (eV), kp =   1 , spin =  1

  -32.18  -19.19  -12.76   -4.51


   CELL_PARAMETERS
   12.00000000    0.00000000    0.00000000
    0.00000000   12.00000000    0.00000000
    0.00000000    0.00000000   12.00000000

   System Density [g/cm^3] :              0.1167302083


   System Volume [A.U.^3] :           1728.0000000000


   Center of mass square displacement (a.u.):   0.000000

   Total stress (GPa)
        5.03690596        -6.88584724        -0.88853544
       -6.88584724         0.97235471        -0.19769666
       -0.88853544        -0.19769666        -7.81759787
   ATOMIC_POSITIONS
   O       0.99000000000000E-02     0.99000000000000E-02     0.00000000000000E+00
   H       0.18325000000000E+01    -0.22430000000000E+00    -0.10000000000000E-03
   H      -0.22430000000000E+00     0.18325000000000E+01     0.20000000000000E-03

   ATOMIC_VELOCITIES
   O       0.00000000000000E+00     0.00000000000000E+00     0.00000000000000E+00
   H       0.00000000000000E+00     0.00000000000000E+00     0.00000000000000E+00
   H       0.00000000000000E+00     0.00000000000000E+00     0.00000000000000E+00

   Forces acting on atoms (au):
   O      -0.51659608261470E+00    -0.34724522464429E+00    -0.13342913472984E+00
   H       0.19387102891748E+00    -0.14308053493556E+00    -0.17178679379799E-01
   H      -0.10642423507871E+00     0.12480276928606E+00    -0.41167568418562E-02



   Partial temperatures (for each ionic specie) 
   Species  Temp (K)   Mean Square Displacement (a.u.)
        1   0.00E+00     0.0000E+00
        2   0.00E+00     0.0000E+00

  nfi     ekinc              temph  tempp     etot                 enthal               econs                econt              vnhh    xnhh0   vnhp    xnhp0
     30    0.301821478180304    0.0    0.00     -16.074937975321     -16.074937975321     -16.074937975321     -15.773116497141   0.0000   0.0000   0.0000   0.0000
     31    0.266491322157595    0.0    0.00     -16.152374297782     -16.152374297782     -16.152374297782     -15.885882975624   0.0000   0.0000   0.0000   0.0000
     32    0.243107102648488    0.0    0.00     -16.230204265746     -16.230204265746     -16.230204265746     -15.987097163097   0.0000   0.0000   0.0000   0.0000
     33    0.229899763719377    0.0    0.00     -16.311172942399     -16.311172942399     -16.311172942399     -16.081273178679   0.0000   0.0000   0.0000   0.0000
     34    0.224227776870886    0.0    0.00     -16.396202479138     -16.396202479138     -16.396202479138     -16.171974702267   0.0000   0.0000   0.0000   0.0000
     35    0.222366609539351    0.0    0.00     -16.483843162728     -16.483843162728     -16.483843162728     -16.261476553189   0.0000   0.0000   0.0000   0.0000
     36    0.220717114297974    0.0    0.00     -16.571028233253     -16.571028233253     -16.571028233253     -16.350311118955   0.0000   0.0000   0.0000   0.0000
     37    0.216566891103294    0.0    0.00     -16.654678570005     -16.654678570005     -16.654678570005     -16.438111678902   0.0000   0.0000   0.0000   0.0000
     38    0.208028324376375    0.0    0.00     -16.731411649420     -16.731411649420     -16.731411649420     -16.523383325044   0.0000   0.0000   0.0000   0.0000
     39    0.194161548129974    0.0    0.00     -16.798242035549     -16.798242035549     -16.798242035549     -16.604080487419   0.0000   0.0000   0.0000   0.0000

 * Physical Quantities at step:    40

   from rhoofr: total integrated electronic density
   in g-space =      8.000000   in r-space =     8.000000
     Total Electronic Pressure (GPa)       -7.76407     40
     Pressure of Nuclei (GPa)             0.00000     40
     Pressure Total (GPa)            -7.76407     40


                total energy =      -16.85326289565 Hartree a.u.
              kinetic energy =       12.16773 Hartree a.u.
        electrostatic energy =      -23.09841 Hartree a.u.
                         esr =        0.00155 Hartree a.u.
                       eself =       30.31961 Hartree a.u.
      pseudopotential energy =       -3.67166 Hartree a.u.
  n-l pseudopotential energy =        1.91704 Hartree a.u.
 exchange-correlation energy =       -4.16796 Hartree a.u.
           average potential =        0.00000 Hartree a.u.



   Eigenvalues (eV), kp =   1 , spin =  1

  -27.43  -13.53  -10.10   -7.88


   CELL_PARAMETERS
   12.00000000    0.00000000    0.00000000
    0.00000000   12.00000000    0.00000000
    0.00000000    0.00000000   12.00000000

   System Density [g/cm^3] :              0.1167302083


   System Volume [A.U.^3] :           1728.0000000000


   Center of mass square displacement (a.u.):   0.000000

   Total stress (GPa)
       -8.49385464        -0.20958188         0.03208380
       -0.20958188        -7.46553705        -0.20536003
        0.03208380        -0.20536003        -7.33282110
   ATOMIC_POSITIONS
   O       0.99000000000000E-02     0.99000000000000E-02     0.00000000000000E+00
   H       0.18325000000000E+01    -0.22430000000000E+00    -0.10000000000000E-03
   H      -0.22430000000000E+00     0.18325000000000E+01     0.20000000000000E-03

   ATOMIC_VELOCITIES
   O       0.00000000000000E+00     0.00000000000000E+00     0.00000000000000E+00
   H       0.00000000000000E+00     0.00000000000000E+00     0.00000000000000E+00
   H       0.00000000000000E+00     0.00000000000000E+00     0.00000000000000E+00

   Forces acting on atoms (au):
   O      -0.11846168362818E+00    -0.84759245664795E-01     0.17098134324255E-01
   H      -0.61691321781339E-01    -0.14695202187247E-01    -0.55113587613509E-02
   H      -0.21491050113952E-01    -0.50214763527520E-01    -0.22329650385029E-02



   Partial temperatures (for each ionic specie) 
   Species  Temp (K)   Mean Square Displacement (a.u.)
        1   0.00E+00     0.0000E+00
        2   0.00E+00     0.0000E+00

  nfi     ekinc              temph  tempp     etot                 enthal               econs                econt              vnhh    xnhh0   vnhp    xnhp0
     40    0.175199876581784    0.0    0.00     -16.853262895646     -16.853262895646     -16.853262895646     -16.678063019064   0.0000   0.0000   0.0000   0.0000
     41    0.152363719816412    0.0    0.00     -16.895855052909     -16.895855052909     -16.895855052909     -16.743491333092   0.0000   0.0000   0.0000   0.0000
     42    0.127405160887652    0.0    0.00     -16.926616309823     -16.926616309823     -16.926616309823     -16.799211148936   0.0000   0.0000   0.0000   0.0000
     43    0.102374583054625    0.0    0.00     -16.947139920945     -16.947139920945     -16.947139920945     -16.844765337890   0.0000   0.0000   0.0000   0.0000
     44    0.079290493434256    0.0    0.00     -16.959934659621     -16.959934659621     -16.959934659621     -16.880644166187   0.0000   0.0000   0.0000   0.0000
     45    0.059651728847481    0.0    0.00     -16.967685128002     -16.967685128002     -16.967685128002     -16.908033399154   0.0000   0.0000   0.0000   0.0000
     46    0.044063582337301    0.0    0.00     -16.972539200081     -16.972539200081     -16.972539200081     -16.928475617743   0.0000   0.0000   0.0000   0.0000
     47    0.032333753212269    0.0    0.00     -16.975897774293     -16.975897774293     -16.975897774293     -16.943564021080   0.0000   0.0000   0.0000   0.0000
     48    0.023786294604957    0.0    0.00     -16.978468175431     -16.978468175431     -16.978468175431     -16.954681880826   0.0000   0.0000   0.0000   0.0000
     49    0.017607468193149    0.0    0.00     -16.980508360928     -16.980508360928     -16.980508360928     -16.962900892735   0.0000   0.0000   0.0000   0.0000

 * Physical Quantities at step:    50

   from rhoofr: total integrated electronic density
   in g-space =      8.000000   in r-space =     8.000000
     Total Electronic Pressure (GPa)       -7.88573     50
     Pressure of Nuclei (GPa)             0.00000     50
     Pressure Total (GPa)            -7.88573     50


                total energy =      -16.98210401046 Hartree a.u.
              kinetic energy =       11.73011 Hartree a.u.
        electrostatic energy =      -23.04780 Hartree a.u.
                         esr =        0.00155 Hartree a.u.
                       eself =       30.31961 Hartree a.u.
      pseudopotential energy =       -3.66177 Hartree a.u.
  n-l pseudopotential energy =        2.15935 Hartree a.u.
 exchange-correlation energy =       -4.16200 Hartree a.u.
           average potential =        0.00000 Hartree a.u.



   Eigenvalues (eV), kp =   1 , spin =  1

  -27.65  -13.27  -10.00   -7.33


   CELL_PARAMETERS
   12.00000000    0.00000000    0.00000000
    0.00000000   12.00000000    0.00000000
    0.00000000    0.00000000   12.00000000

   System Density [g/cm^3] :              0.1167302083


   System Volume [A.U.^3] :           1728.0000000000


   Center of mass square displacement (a.u.):   0.000000

   Total stress (GPa)
       -6.71961898        -0.05490479         0.06345889
       -0.05490479        -7.27818146         0.05981482
        0.06345889         0.05981482        -9.65939784
   ATOMIC_POSITIONS
   O       0.99000000000000E-02     0.99000000000000E-02     0.00000000000000E+00
   H       0.18325000000000E+01    -0.22430000000000E+00    -0.10000000000000E-03
   H      -0.22430000000000E+00     0.18325000000000E+01     0.20000000000000E-03

   ATOMIC_VELOCITIES
   O       0.00000000000000E+00     0.00000000000000E+00     0.00000000000000E+00
   H       0.00000000000000E+00     0.00000000000000E+00     0.00000000000000E+00
   H       0.00000000000000E+00     0.00000000000000E+00     0.00000000000000E+00

   Forces acting on atoms (au):
   O       0.67179886851980E-01     0.37778964965527E-01     0.50875938982241E-02
   H       0.40302766954367E-01    -0.92306179954552E-02    -0.90381487408956E-03
   H       0.83164419255780E-03     0.34230451820818E-01    -0.22206448405543E-02



   Partial temperatures (for each ionic specie) 
   Species  Temp (K)   Mean Square Displacement (a.u.)
        1   0.00E+00     0.0000E+00
        2   0.00E+00     0.0000E+00

  nfi     ekinc              temph  tempp     etot                 enthal               econs                econt              vnhh    xnhh0   vnhp    xnhp0
     50    0.013103346652016    0.0    0.00     -16.982104010462     -16.982104010462     -16.982104010462     -16.969000663810   0.0000   0.0000   0.0000   0.0000
     51    0.009797356312843    0.0    0.00     -16.983338879597     -16.983338879597     -16.983338879597     -16.973541523284   0.0000   0.0000   0.0000   0.0000
     52    0.007402297019818    0.0    0.00     -16.984347477125     -16.984347477125     -16.984347477125     -16.976945180105   0.0000   0.0000   0.0000   0.0000
     53    0.005735254232558    0.0    0.00     -16.985279273968     -16.985279273968     -16.985279273968     -16.979544019736   0.0000   0.0000   0.0000   0.0000
     54    0.004641591911980    0.0    0.00     -16.986244383735     -16.986244383735     -16.986244383735     -16.981602791823   0.0000   0.0000   0.0000   0.0000
     55    0.003962396911704    0.0    0.00     -16.987279980524     -16.987279980524     -16.987279980524     -16.983317583612   0.0000   0.0000   0.0000   0.0000
     56    0.003541292993471    0.0    0.00     -16.988360129515     -16.988360129515     -16.988360129515     -16.984818836522   0.0000   0.0000   0.0000   0.0000
     57    0.003247014308851    0.0    0.00     -16.989426114113     -16.989426114113     -16.989426114113     -16.986179099804   0.0000   0.0000   0.0000   0.0000
     58    0.002990465098050    0.0    0.00     -16.990417509174     -16.990417509174     -16.990417509174     -16.987427044076   0.0000   0.0000   0.0000   0.0000
     59    0.002727114736055    0.0    0.00     -16.991295439432     -16.991295439432     -16.991295439432     -16.988568324696   0.0000   0.0000   0.0000   0.0000

 * Physical Quantities at step:    60

   from rhoofr: total integrated electronic density
   in g-space =      8.000000   in r-space =     8.000000
     Total Electronic Pressure (GPa)       -8.64607     60
     Pressure of Nuclei (GPa)             0.00000     60
     Pressure Total (GPa)            -8.64607     60


                total energy =      -16.99204485777 Hartree a.u.
              kinetic energy =       11.79733 Hartree a.u.
        electrostatic energy =      -23.04162 Hartree a.u.
                         esr =        0.00155 Hartree a.u.
                       eself =       30.31961 Hartree a.u.
      pseudopotential energy =       -3.64021 Hartree a.u.
  n-l pseudopotential energy =        2.06854 Hartree a.u.
 exchange-correlation energy =       -4.17609 Hartree a.u.
           average potential =        0.00000 Hartree a.u.



   Eigenvalues (eV), kp =   1 , spin =  1

  -27.22  -13.21   -9.31   -7.13


   CELL_PARAMETERS
   12.00000000    0.00000000    0.00000000
    0.00000000   12.00000000    0.00000000
    0.00000000    0.00000000   12.00000000

   System Density [g/cm^3] :              0.1167302083


   System Volume [A.U.^3] :           1728.0000000000


   Center of mass square displacement (a.u.):   0.000000

   Total stress (GPa)
       -8.18588831        -0.36956761        -0.04064508
       -0.36956761        -8.03396909         0.01013179
       -0.04064508         0.01013179        -9.71835902
   ATOMIC_POSITIONS
   O       0.99000000000000E-02     0.99000000000000E-02     0.00000000000000E+00
   H       0.18325000000000E+01    -0.22430000000000E+00    -0.10000000000000E-03
   H      -0.22430000000000E+00     0.18325000000000E+01     0.20000000000000E-03

   ATOMIC_VELOCITIES
   O       0.00000000000000E+00     0.00000000000000E+00     0.00000000000000E+00
   H       0.00000000000000E+00     0.00000000000000E+00     0.00000000000000E+00
   H       0.00000000000000E+00     0.00000000000000E+00     0.00000000000000E+00

   Forces acting on atoms (au):
   O      -0.36556105559733E-01    -0.22208688068653E-01    -0.37288343055691E-02
   H       0.76958328860918E-02     0.68480456405591E-02    -0.23990491735180E-03
   H       0.43195473565812E-02     0.81113386401750E-02    -0.22590618117848E-03



   Partial temperatures (for each ionic specie) 
   Species  Temp (K)   Mean Square Displacement (a.u.)
        1   0.00E+00     0.0000E+00
        2   0.00E+00     0.0000E+00

  nfi     ekinc              temph  tempp     etot                 enthal               econs                econt              vnhh    xnhh0   vnhp    xnhp0
     60    0.002446010537187    0.0    0.00     -16.992044857773     -16.992044857773     -16.992044857773     -16.989598847236   0.0000   0.0000   0.0000   0.0000
     61    0.002153327047834    0.0    0.00     -16.992667822362     -16.992667822362     -16.992667822362     -16.990514495315   0.0000   0.0000   0.0000   0.0000
     62    0.001859277009069    0.0    0.00     -16.993172213829     -16.993172213829     -16.993172213829     -16.991312936820   0.0000   0.0000   0.0000   0.0000
     63    0.001572199384596    0.0    0.00     -16.993567778052     -16.993567778052     -16.993567778052     -16.991995578667   0.0000   0.0000   0.0000   0.0000
     64    0.001298466603195    0.0    0.00     -16.993864698101     -16.993864698101     -16.993864698101     -16.992566231498   0.0000   0.0000   0.0000   0.0000
     65    0.001044494062055    0.0    0.00     -16.994075875904     -16.994075875904     -16.994075875904     -16.993031381842   0.0000   0.0000   0.0000   0.0000
     66    0.000817465636624    0.0    0.00     -16.994217650755     -16.994217650755     -16.994217650755     -16.993400185119   0.0000   0.0000   0.0000   0.0000
     67    0.000623815497483    0.0    0.00     -16.994308767470     -16.994308767470     -16.994308767470     -16.993684951972   0.0000   0.0000   0.0000   0.0000
     68    0.000466859945272    0.0    0.00     -16.994367048015     -16.994367048015     -16.994367048015     -16.993900188070   0.0000   0.0000   0.0000   0.0000
     69    0.000345578550117    0.0    0.00     -16.994406315668     -16.994406315668     -16.994406315668     -16.994060737118   0.0000   0.0000   0.0000   0.0000

 * Physical Quantities at step:    70

   from rhoofr: total integrated electronic density
   in g-space =      8.000000   in r-space =     8.000000
     Total Electronic Pressure (GPa)       -8.35847     70
     Pressure of Nuclei (GPa)             0.00000     70
     Pressure Total (GPa)            -8.35847     70


                total energy =      -16.99443491580 Hartree a.u.
              kinetic energy =       11.85136 Hartree a.u.
        electrostatic energy =      -23.07042 Hartree a.u.
                         esr =        0.00155 Hartree a.u.
                       eself =       30.31961 Hartree a.u.
      pseudopotential energy =       -3.65854 Hartree a.u.
  n-l pseudopotential energy =        2.06958 Hartree a.u.
 exchange-correlation energy =       -4.18641 Hartree a.u.
           average potential =        0.00000 Hartree a.u.



   Eigenvalues (eV), kp =   1 , spin =  1

  -27.07  -13.02   -9.32   -7.01


   CELL_PARAMETERS
   12.00000000    0.00000000    0.00000000
    0.00000000   12.00000000    0.00000000
    0.00000000    0.00000000   12.00000000

   System Density [g/cm^3] :              0.1167302083


   System Volume [A.U.^3] :           1728.0000000000


   Center of mass square displacement (a.u.):   0.000000

   Total stress (GPa)
       -7.85049765        -0.19046548         0.01788417
       -0.19046548        -7.87213467        -0.00588470
        0.01788417        -0.00588470        -9.35277647
   ATOMIC_POSITIONS
   O       0.99000000000000E-02     0.99000000000000E-02     0.00000000000000E+00
   H       0.18325000000000E+01    -0.22430000000000E+00    -0.10000000000000E-03
   H      -0.22430000000000E+00     0.18325000000000E+01     0.20000000000000E-03

   ATOMIC_VELOCITIES
   O       0.00000000000000E+00     0.00000000000000E+00     0.00000000000000E+00
   H       0.00000000000000E+00     0.00000000000000E+00     0.00000000000000E+00
   H       0.00000000000000E+00     0.00000000000000E+00     0.00000000000000E+00

   Forces acting on atoms (au):
   O      -0.36278163006938E-02    -0.67883756264282E-02     0.15335974148462E-02
   H       0.52108117969082E-02     0.31997329928318E-02     0.83030473328366E-05
   H       0.29592659483048E-02     0.54361961280728E-02     0.21138098769281E-03



   Partial temperatures (for each ionic specie) 
   Species  Temp (K)   Mean Square Displacement (a.u.)
        1   0.00E+00     0.0000E+00
        2   0.00E+00     0.0000E+00

  nfi     ekinc              temph  tempp     etot                 enthal               econs                econt              vnhh    xnhh0   vnhp    xnhp0
     70    0.000255240988282    0.0    0.00     -16.994434915800     -16.994434915800     -16.994434915800     -16.994179674811   0.0000   0.0000   0.0000   0.0000
     71    0.000189376708362    0.0    0.00     -16.994457138360     -16.994457138360     -16.994457138360     -16.994267761652   0.0000   0.0000   0.0000   0.0000
     72    0.000141851556540    0.0    0.00     -16.994475139752     -16.994475139752     -16.994475139752     -16.994333288195   0.0000   0.0000   0.0000   0.0000
     73    0.000108044016185    0.0    0.00     -16.994490769563     -16.994490769563     -16.994490769563     -16.994382725547   0.0000   0.0000   0.0000   0.0000
     74    0.000084852257075    0.0    0.00     -16.994505664275     -16.994505664275     -16.994505664275     -16.994420812018   0.0000   0.0000   0.0000   0.0000
     75    0.000070009651318    0.0    0.00     -16.994521426075     -16.994521426075     -16.994521426075     -16.994451416423   0.0000   0.0000   0.0000   0.0000
     76    0.000061386927574    0.0    0.00     -16.994538949922     -16.994538949922     -16.994538949922     -16.994477562995   0.0000   0.0000   0.0000   0.0000
     77    0.000056725127722    0.0    0.00     -16.994557969474     -16.994557969474     -16.994557969474     -16.994501244346   0.0000   0.0000   0.0000   0.0000
     78    0.000053831533354    0.0    0.00     -16.994577437931     -16.994577437931     -16.994577437931     -16.994523606397   0.0000   0.0000   0.0000   0.0000
     79    0.000050972336663    0.0    0.00     -16.994595757641     -16.994595757641     -16.994595757641     -16.994544785304   0.0000   0.0000   0.0000   0.0000

 * Physical Quantities at step:    80

   from rhoofr: total integrated electronic density
   in g-space =      8.000000   in r-space =     8.000000
     Total Electronic Pressure (GPa)       -8.46918     80
     Pressure of Nuclei (GPa)             0.00000     80
     Pressure Total (GPa)            -8.46918     80


                total energy =      -16.99461170302 Hartree a.u.
              kinetic energy =       11.82977 Hartree a.u.
        electrostatic energy =      -23.05938 Hartree a.u.
                         esr =        0.00155 Hartree a.u.
                       eself =       30.31961 Hartree a.u.
      pseudopotential energy =       -3.65164 Hartree a.u.
  n-l pseudopotential energy =        2.07024 Hartree a.u.
 exchange-correlation energy =       -4.18361 Hartree a.u.
           average potential =        0.00000 Hartree a.u.



   Eigenvalues (eV), kp =   1 , spin =  1

  -27.12  -13.03   -9.34   -7.02


   CELL_PARAMETERS
   12.00000000    0.00000000    0.00000000
    0.00000000   12.00000000    0.00000000
    0.00000000    0.00000000   12.00000000

   System Density [g/cm^3] :              0.1167302083


   System Volume [A.U.^3] :           1728.0000000000


   Center of mass square displacement (a.u.):   0.000000

   Total stress (GPa)
       -7.94258896        -0.20746617        -0.00235283
       -0.20746617        -7.94690870         0.00368604
       -0.00235283         0.00368604        -9.51805589
   ATOMIC_POSITIONS
   O       0.99000000000000E-02     0.99000000000000E-02     0.00000000000000E+00
   H       0.18325000000000E+01    -0.22430000000000E+00    -0.10000000000000E-03
   H      -0.22430000000000E+00     0.18325000000000E+01     0.20000000000000E-03

   ATOMIC_VELOCITIES
   O       0.00000000000000E+00     0.00000000000000E+00     0.00000000000000E+00
   H       0.00000000000000E+00     0.00000000000000E+00     0.00000000000000E+00
   H       0.00000000000000E+00     0.00000000000000E+00     0.00000000000000E+00

   Forces acting on atoms (au):
   O      -0.14641831270629E-01    -0.14519316178591E-01     0.24448675631684E-04
   H       0.67009486410377E-02     0.27391798904878E-02     0.14591491603728E-03
   H       0.30441945111565E-02     0.65440799762383E-02     0.11715563922455E-03



   Partial temperatures (for each ionic specie) 
   Species  Temp (K)   Mean Square Displacement (a.u.)
        1   0.00E+00     0.0000E+00
        2   0.00E+00     0.0000E+00

  nfi     ekinc              temph  tempp     etot                 enthal               econs                econt              vnhh    xnhh0   vnhp    xnhp0
     80    0.000047157515153    0.0    0.00     -16.994611703024     -16.994611703024     -16.994611703024     -16.994564545509   0.0000   0.0000   0.0000   0.0000
     81    0.000042153787687    0.0    0.00     -16.994624675201     -16.994624675201     -16.994624675201     -16.994582521413   0.0000   0.0000   0.0000   0.0000
     82    0.000036265300408    0.0    0.00     -16.994634497055     -16.994634497055     -16.994634497055     -16.994598231755   0.0000   0.0000   0.0000   0.0000
     83    0.000030030763097    0.0    0.00     -16.994641493192     -16.994641493192     -16.994641493192     -16.994611462429   0.0000   0.0000   0.0000   0.0000
     84    0.000023974126168    0.0    0.00     -16.994646222446     -16.994646222446     -16.994646222446     -16.994622248320   0.0000   0.0000   0.0000   0.0000
     85    0.000018479403174    0.0    0.00     -16.994649223528     -16.994649223528     -16.994649223528     -16.994630744125   0.0000   0.0000   0.0000   0.0000
     86    0.000013770914515    0.0    0.00     -16.994650897515     -16.994650897515     -16.994650897515     -16.994637126601   0.0000   0.0000   0.0000   0.0000
     87    0.000009945552677    0.0    0.00     -16.994651718981     -16.994651718981     -16.994651718981     -16.994641773429   0.0000   0.0000   0.0000   0.0000

   MAIN:          EKINC   (thr)          DETOT   (thr)       MAXFORCE   (thr)
   MAIN:   0.994555D-05  0.1D-03  0.821466D-06  0.1D-05  0.000000D+00  0.1D+11
   MAIN: convergence achieved for system relaxation

 * Physical Quantities at step:    88
     Pressure of Nuclei (GPa)             0.00000     88
     Pressure Total (GPa)            -8.44391     88


                total energy =      -16.99465213045 Hartree a.u.
              kinetic energy =       11.83371 Hartree a.u.
        electrostatic energy =      -23.06171 Hartree a.u.
                         esr =        0.00155 Hartree a.u.
                       eself =       30.31961 Hartree a.u.
      pseudopotential energy =       -3.65326 Hartree a.u.
  n-l pseudopotential energy =        2.07033 Hartree a.u.
 exchange-correlation energy =       -4.18372 Hartree a.u.
           average potential =        0.00000 Hartree a.u.



   Eigenvalues (eV), kp =   1 , spin =  1

  -27.11  -13.04   -9.35   -7.02


   CELL_PARAMETERS
   12.00000000    0.00000000    0.00000000
    0.00000000   12.00000000    0.00000000
    0.00000000    0.00000000   12.00000000

   System Density [g/cm^3] :              0.1167302083


   System Volume [A.U.^3] :           1728.0000000000


   Center of mass square displacement (a.u.):   0.000000

   Total stress (GPa)
       -7.92548008        -0.20951592         0.00074767
       -0.20951592        -7.91946857        -0.00304102
        0.00074767        -0.00304102        -9.48678204
   ATOMIC_POSITIONS
   O       0.99000000000000E-02     0.99000000000000E-02     0.00000000000000E+00
   H       0.18325000000000E+01    -0.22430000000000E+00    -0.10000000000000E-03
   H      -0.22430000000000E+00     0.18325000000000E+01     0.20000000000000E-03

   ATOMIC_VELOCITIES
   O       0.00000000000000E+00     0.00000000000000E+00     0.00000000000000E+00
   H       0.00000000000000E+00     0.00000000000000E+00     0.00000000000000E+00
   H       0.00000000000000E+00     0.00000000000000E+00     0.00000000000000E+00

   Forces acting on atoms (au):
   O      -0.10730867501783E-01    -0.11367841106195E-01    -0.37494066272281E-03
   H       0.66423246717790E-02     0.31058299161856E-02    -0.20620549308256E-04
   H       0.31334549559017E-02     0.66508926067352E-02    -0.35954421169425E-04



   Partial temperatures (for each ionic specie) 
   Species  Temp (K)   Mean Square Displacement (a.u.)
        1   0.00E+00     0.0000E+00
        2   0.00E+00     0.0000E+00
     88    0.000007012032721    0.0    0.00     -16.994652130448     -16.994652130448     -16.994652130448     -16.994645118415   0.0000   0.0000   0.0000   0.0000

   MAIN:          EKINC   (thr)          DETOT   (thr)       MAXFORCE   (thr)
   MAIN:   0.701203D-05  0.1D-03  0.411466D-06  0.1D-05  0.000000D+00  0.1D+11
   MAIN: convergence achieved for system relaxation

   writing restart file (with schema): ./h2o_50.save/
     restart      :      0.00s CPU      0.01s WALL (       1 calls)


   Averaged Physical Quantities
                      accumulated      this run
   ekinc         :        0.82313       0.82313 (AU)
   ekin          :       10.93892      10.93892 (AU)
   epot          :      -27.68580     -27.68580 (AU)
   total energy  :      -14.53709     -14.53709 (AU)
   temperature   :        0.00000       0.00000 (K )
   enthalpy      :      -14.53709     -14.53709 (AU)
   econs         :      -14.53709     -14.53709 (AU)
   pressure      :        2.35645       2.35645 (Gpa)
   volume        :     1728.00000    1728.00000 (AU)



     Called by MAIN_LOOP:
     initialize   :      0.37s CPU      0.38s WALL (       1 calls)
     main_loop    :      7.75s CPU      8.09s WALL (      88 calls)
     cpr_total    :      7.75s CPU      8.10s WALL (       1 calls)

     Called by INIT_RUN:

     Called by CPR:
     cpr_md       :      7.75s CPU      8.10s WALL (      88 calls)
     move_electro :      7.66s CPU      7.99s WALL (      88 calls)

     Called by move_electrons:
     rhoofr       :      3.41s CPU      3.47s WALL (      89 calls)
     vofrho       :      3.66s CPU      3.93s WALL (      89 calls)
     dforce       :      0.76s CPU      0.78s WALL (     178 calls)
     calphi       :      0.00s CPU      0.00s WALL (      89 calls)
     nlfl         :      0.00s CPU      0.00s WALL (      89 calls)

     Called by ortho:
     ortho_iter   :      0.00s CPU      0.00s WALL (      89 calls)
     rsg          :      0.00s CPU      0.00s WALL (      89 calls)
     rhoset       :      0.00s CPU      0.01s WALL (      89 calls)
     sigset       :      0.00s CPU      0.00s WALL (      89 calls)
     tauset       :      0.00s CPU      0.00s WALL (      89 calls)
     ortho        :      0.02s CPU      0.02s WALL (      89 calls)
     updatc       :      0.00s CPU      0.00s WALL (      89 calls)

     Small boxes:

     Low-level routines:
     prefor       :      0.00s CPU      0.00s WALL (      89 calls)
     nlfq         :      0.01s CPU      0.01s WALL (      89 calls)
     nlsm1        :      0.00s CPU      0.00s WALL (      90 calls)
     nlsm2        :      0.01s CPU      0.01s WALL (      89 calls)
     fft          :      0.59s CPU      0.63s WALL (     891 calls)
     ffts         :      0.23s CPU      0.24s WALL (     356 calls)
     fftw         :      0.85s CPU      0.87s WALL (    2136 calls)
     betagx       :      0.08s CPU      0.08s WALL (       1 calls)
     qradx        :      0.00s CPU      0.00s WALL (       1 calls)
     gram         :      0.00s CPU      0.00s WALL (       1 calls)
     nlinit       :      0.16s CPU      0.16s WALL (       1 calls)
     init_dim     :      0.01s CPU      0.01s WALL (       1 calls)
     newnlinit    :      0.00s CPU      0.00s WALL (       1 calls)
     from_scratch :      0.20s CPU      0.21s WALL (       1 calls)
     strucf       :      0.00s CPU      0.00s WALL (       1 calls)
     calbec       :      0.00s CPU      0.00s WALL (      90 calls)
     caldbec_bgrp :      0.02s CPU      0.03s WALL (      90 calls)
     exch_corr    :      2.51s CPU      2.72s WALL (      89 calls)


     CP           :      8.14s CPU      8.51s WALL


   This run was terminated on:  10:40:53   2Jul2025            

=------------------------------------------------------------------------------=
   JOB DONE.
=------------------------------------------------------------------------------=
