                                                                                      
                                       ``:oss/                                        
                           `.+s+.     .+ys--yh+     `./ss+.                           
                          -sh//yy+`   +yy   +yy    -+h+-oyy                           
                          -yh- .oyy/.-sh.   .syo-.:sy-  /yh                           
                 `.-.`    `yh+   -oyyyo.     `/syys:    oys      `.`                  
               `/+ssys+-` `sh+      `                   oys`   .:osyo`                
               -yh- ./syyooyo`                          .sys+/oyo--yh/                
               `yy+    .-:-.                             `-/+/:`  -sh-                
                /yh.                                              oys                 
          ``..---hho---------`   .---------..`      `.-----.`    -hd+---.             
       `./osmNMMMMMMMMMMMMMMMs. +NNMMMMMMMMNNmh+.   yNMMMMMNm-  oNMMMMMNmo++:`        
       +sy--/sdMMMhyyyyyyyNMMh- .oyNMMmyyyyyhNMMm+` -yMMMdyyo:` .oyyNMMNhs+syy`       
       -yy/   /MMM+.`-+/``mMMy-   `mMMh:`````.dMMN:` `MMMy-`-dhhy```mMMy:``+hs        
        -yy+` /MMMo:-mMM+`-oo/.    mMMh:     `dMMN/`  dMMm:`dMMMMy..MMMo-.+yo`        
         .sys`/MMMMNNMMMs-         mMMmyooooymMMNo:   oMMM/sMMMMMM++MMN//oh:          
          `sh+/MMMhyyMMMs- `-`     mMMMMMMMMMNmy+-`   -MMMhMMMsmMMmdMMd/yy+           
    `-/+++oyy-/MMM+.`/hh/.`mNm:`   mMMd+/////:-.`      NMMMMMd/:NMMMMMy:/yyo/:.`      
   +os+//:-..-oMMMo:--:::-/MMMo. .-mMMd+---`           hMMMMN+. oMMMMMo. `-+osyso:`   
   syo     `mNMMMMMNNNNNNNNMMMo.oNNMMMMMNNNN:`         +MMMMs:`  dMMMN/`     ``:syo   
   /yh`     :syyyyyyyyyyyyyyyy+.`+syyyyyyyyo:`         .oyys:`   .oyys:`        +yh   
   -yh-        ````````````````    `````````              ``        ``          oys   
   -+h/------------------------::::::::://////++++++++++++++++++++++///////::::/yd:   
   shdddddddddddddddddddddddddddddhhhhhhhhyyyyyssssssssssssssssyyyyyyyhhhhhhhddddh`   
                                                                                      
  S. Ponce, E. R. Margine, C. Verdi, and F. Giustino,                                 
                                                Comput. Phys. Commun. 209, 116 (2016) 
                                                                                      

     Program EPW v.5.7 starts on 16Apr2023 at 22:36:31 

     This program is part of the open-source Quantum ESPRESSO suite
     for quantum simulation of materials; please cite
         "P. Giannozzi et al., J. Phys.:Condens. Matter 21 395502 (2009);
         "P. Giannozzi et al., J. Phys.:Condens. Matter 29 465901 (2017);
         "P. Giannozzi et al., J. Chem. Phys. 152 154105 (2020);
          URL http://www.quantum-espresso.org", 
     in publications or presentations arising from this work. More details at
     http://www.quantum-espresso.org/quote

     Parallel version (MPI), running on     1 processors

     MPI processes distributed on     1 nodes
     47655 MiB available memory on the printing compute node when the environment starts

     Waiting for input...
     Reading input from standard input

     WARNING: The specified dis_win_min is ignored.
              You should instead use bands_skipped = 'exclude_bands = ...'
              to control the lower bound of band manifold.

     Reading supplied temperature list.

     Reading xml data from directory:

     ./mos2.save/

     IMPORTANT: XC functional enforced from input :
     Exchange-correlation= PBE
                           (   1   4   3   4   0   0   0)
     Any further DFT definition will be discarded
     Please, verify this is what you really want


     G-vector sticks info
     --------------------
     sticks:   dense  smooth     PW     G-vecs:    dense   smooth      PW
     Sum         253     253    109                17131    17131    4855

     Using Slab Decomposition

 ----2D----2D----2D----2D----2D----2D----2D----2D----2D----2D----2D----2D
  The code is running with the 2D cutoff
  Please refer to:
  Sohier, T., Calandra, M., & Mauri, F. (2017), 
  Density functional perturbation theory for gated two-dimensional heterostructures:
  Theoretical developments and application to flexural phonons in graphene.
  Physical Review B, 96(7), 75448. https://doi.org/10.1103/PhysRevB.96.075448
 ----2D----2D----2D----2D----2D----2D----2D----2D----2D----2D----2D----2D

     Check: negative core charge=   -0.000002
     Reading collected, re-writing distributed wavefunctions

     --                                                                         

     bravais-lattice index     =            4
     lattice parameter (a_0)   =       6.0202  a.u.
     unit-cell volume          =    1008.3196 (a.u.)^3
     number of atoms/cell      =            3
     number of atomic types    =            2
     kinetic-energy cut-off    =      25.0000  Ry
     charge density cut-off    =     100.0000  Ry
     Exchange-correlation= PBE
                           (   1   4   3   4   0   0   0)
     Non magnetic calculation with spin-orbit

     celldm(1)=    6.02019  celldm(2)=    0.00000  celldm(3)=    5.33626
     celldm(4)=    0.00000  celldm(5)=    0.00000  celldm(6)=    0.00000

     crystal axes: (cart. coord. in units of a_0)
               a(1) = (  1.0000  0.0000  0.0000 )  
               a(2) = ( -0.5000  0.8660  0.0000 )  
               a(3) = (  0.0000  0.0000  5.3363 )  

     reciprocal axes: (cart. coord. in units 2 pi/a_0)
               b(1) = (  1.0000  0.5774 -0.0000 )  
               b(2) = (  0.0000  1.1547  0.0000 )  
               b(3) = (  0.0000 -0.0000  0.1874 )  


     Atoms inside the unit cell: 

   Cartesian axes

     site n.  atom      mass           positions (a_0 units)
        1        Mo  95.9620   tau( 1) = (    0.00000    0.57735    0.00000  )
        2        S   32.0650   tau( 2) = (    0.50000    0.28868   -0.49064  )
        3        S   32.0650   tau( 3) = (    0.50000    0.28868    0.49064  )

     13 Sym.Ops. (with q -> -q+G )


     G cutoff =   91.8038  (  17131 G-vectors)     FFT grid: ( 20, 20,108)
     number of k points=   16
                       cart. coord. in units 2pi/a_0
        k(    1) = (   0.0000000   0.0000000   0.0000000), wk =   0.0625000
        k(    2) = (   0.0000000   0.2886751   0.0000000), wk =   0.0625000
        k(    3) = (   0.0000000   0.5773503   0.0000000), wk =   0.0625000
        k(    4) = (   0.0000000   0.8660254   0.0000000), wk =   0.0625000
        k(    5) = (   0.2500000   0.1443376   0.0000000), wk =   0.0625000
        k(    6) = (   0.2500000   0.4330127   0.0000000), wk =   0.0625000
        k(    7) = (   0.2500000   0.7216878   0.0000000), wk =   0.0625000
        k(    8) = (   0.2500000   1.0103630   0.0000000), wk =   0.0625000
        k(    9) = (   0.5000000   0.2886751   0.0000000), wk =   0.0625000
        k(   10) = (   0.5000000   0.5773503   0.0000000), wk =   0.0625000
        k(   11) = (   0.5000000   0.8660254   0.0000000), wk =   0.0625000
        k(   12) = (   0.5000000   1.1547005   0.0000000), wk =   0.0625000
        k(   13) = (   0.7500000   0.4330127   0.0000000), wk =   0.0625000
        k(   14) = (   0.7500000   0.7216878   0.0000000), wk =   0.0625000
        k(   15) = (   0.7500000   1.0103630   0.0000000), wk =   0.0625000
        k(   16) = (   0.7500000   1.2990381   0.0000000), wk =   0.0625000

     PseudoPot. # 1 for Mo read from file:
     ../../pseudo/Mo-PBE.upf
     MD5 check sum: 7ca7a9feba7bf08d88d14bc7fbf60c1e
     Pseudo is Norm-conserving + core correction, Zval = 14.0
     Generated using ONCVPSP code by D. R. Hamann
     Using radial grid of 1640 points,  6 beta functions with: 
                l(1) =   0
                l(2) =   0
                l(3) =   1
                l(4) =   1
                l(5) =   2
                l(6) =   2

     PseudoPot. # 2 for S  read from file:
     ../../pseudo/S-PBE.upf
     MD5 check sum: b72b6a9ca752e39de1a6cc592280dae2
     Pseudo is Norm-conserving + core correction, Zval =  6.0
     Generated using ONCVPSP code by D. R. Hamann
     Using radial grid of 1148 points,  6 beta functions with: 
                l(1) =   0
                l(2) =   0
                l(3) =   1
                l(4) =   1
                l(5) =   2
                l(6) =   2
     EPW          :      0.19s CPU      0.22s WALL

     EPW          :      0.57s CPU      0.60s WALL

     -------------------------------------------------------------------
     Wannierization on  4 x  4 x  1 electronic grid
     -------------------------------------------------------------------

     Spin CASE ( non-collinear )

     Initializing Wannier90


     Initial Wannier projections

     (   0.33333   0.66667   0.00000) :  l =   2 mr =   1
     (   0.33333   0.66667   0.00000) :  l =   2 mr =   1
     (   0.33333   0.66667   0.00000) :  l =   2 mr =   2
     (   0.33333   0.66667   0.00000) :  l =   2 mr =   2
     (   0.33333   0.66667   0.00000) :  l =   2 mr =   3
     (   0.33333   0.66667   0.00000) :  l =   2 mr =   3
     (   0.33333   0.66667   0.00000) :  l =   2 mr =   4
     (   0.33333   0.66667   0.00000) :  l =   2 mr =   4
     (   0.33333   0.66667   0.00000) :  l =   2 mr =   5
     (   0.33333   0.66667   0.00000) :  l =   2 mr =   5

      - Number of bands is ( 10)
      - Number of total bands is ( 34)
      - Number of excluded bands is ( 24)
      - Number of wannier functions is ( 10)
      - All guiding functions are given 

  Reading data about k-point neighbours 

      - All neighbours are found 

     AMN
      k points =    16 in    1 pools
            1 of   16 on ionode
            2 of   16 on ionode
            3 of   16 on ionode
            4 of   16 on ionode
            5 of   16 on ionode
            6 of   16 on ionode
            7 of   16 on ionode
            8 of   16 on ionode
            9 of   16 on ionode
           10 of   16 on ionode
           11 of   16 on ionode
           12 of   16 on ionode
           13 of   16 on ionode
           14 of   16 on ionode
           15 of   16 on ionode
           16 of   16 on ionode

     AMN calculated

     MMN
      k points =    16 in    1 pools
            1 of   16 on ionode
            2 of   16 on ionode
            3 of   16 on ionode
            4 of   16 on ionode
            5 of   16 on ionode
            6 of   16 on ionode
            7 of   16 on ionode
            8 of   16 on ionode
            9 of   16 on ionode
           10 of   16 on ionode
           11 of   16 on ionode
           12 of   16 on ionode
           13 of   16 on ionode
           14 of   16 on ionode
           15 of   16 on ionode
           16 of   16 on ionode
     MMN calculated

     Running Wannier90

     Wannier Function centers (cartesian, alat) and spreads (ang):

     (  -0.05453   0.60883  -0.00000) :   3.41477
     (  -0.05453   0.60883  -0.00000) :   3.41477
     (  -0.00000   0.45161  -0.00000) :   4.11189
     (   0.00000   0.45161  -0.00000) :   4.11189
     (   0.00000   0.71603   0.00000) :   4.11458
     (  -0.00000   0.71603   0.00000) :   4.11458
     (   0.00000   0.51439   0.00000) :   3.41474
     (   0.00000   0.51439   0.00000) :   3.41474
     (   0.05452   0.60883   0.00000) :   3.41473
     (   0.05452   0.60883   0.00000) :   3.41473

     -------------------------------------------------------------------
     WANNIER      :      8.68s CPU      8.74s WALL (       1 calls)
     -------------------------------------------------------------------

     Calculating kgmap

     Progress kgmap: ########################################
     kmaps        :      0.04s CPU      0.04s WALL (       1 calls)
   Area is [Bohr^2]    31.387088194289007     
     
     ------------------------------------ 
     Quadrupole tensor is correctly read: 
     ------------------------------------ 
     atom   dir        Qxx       Qyy      Qzz        Qyz       Qxz       Qxy
       1        x       0.00000   0.00000   0.00000  -0.00000  -0.00000  -5.53266
       1        y      -5.53266   5.53266   0.00000  -0.00000  -0.00000   0.00000
       1        z       0.00000   0.00000  -0.00000   0.00000   0.00000   0.00000
       2        x       0.00000   0.00000   0.00000   0.00000  -0.17419  -0.39121
       2        y      -0.39122   0.39121   0.00000  -0.17419  -0.00000   0.00000
       2        z       7.85763   7.85763  -0.29698   0.00000   0.00000   0.00000
       3        x       0.00000   0.00000   0.00000   0.00000   0.17419  -0.39121
       3        y      -0.39122   0.39121   0.00000   0.17419   0.00000   0.00000
       3        z      -7.85763  -7.85763   0.29698   0.00000   0.00000   0.00000
     
     Symmetries of Bravais lattice:  24
     Symmetries of crystal:          12


     ===================================================================
     irreducible q point #    1
     ===================================================================

     Symmetries of small group of q: 12
          in addition sym. q -> -q+G:

     Number of q in the star =    1
     List of q in the star:
          1   0.000000000   0.000000000   0.000000000
     Read dielectric tensor and effective charges
     Imposing acoustic sum rule on the dynamical matrix

        q(    1 ) = (   0.0000000   0.0000000   0.0000000 )


     ===================================================================
     irreducible q point #    2
     ===================================================================

     Symmetries of small group of q:  4
          in addition sym. q -> -q+G:

     Number of q in the star =    3
     List of q in the star:
          1   0.000000000  -0.577350269   0.000000000
          2   0.500000000   0.288675135   0.000000000
          3  -0.500000000   0.288675135   0.000000000

        q(    2 ) = (   0.0000000  -0.5773503   0.0000000 )
        q(    3 ) = (   0.5000000   0.2886751   0.0000000 )
        q(    4 ) = (  -0.5000000   0.2886751   0.0000000 )

     Writing epmatq on .epb files


     The .epb files have been correctly written


     Computes the analytic long-range interaction for polar materials [lpolar]
      
     Use zone-centred Wigner-Seitz cells 
     Number of WS vectors for electrons       19
     Number of WS vectors for phonons        7
     Number of WS vectors for electron-phonon        7
     Maximum number of cores for efficient parallelization       63
     Results may improve by using use_ws == .TRUE. 

     Inside velocity step 1
 

     Velocity matrix elements calculated
 
     Find optimal range separation length L
      
     L     40.50000 Bohr with IFC =       7.487274586559
     L     60.25000 Bohr with IFC =       7.487274587459
     L     50.37500 Bohr with IFC =       7.487274587457
     L     45.43750 Bohr with IFC =       7.487274587413
     L     42.96875 Bohr with IFC =       7.487274587256
     L     41.73438 Bohr with IFC =       7.487274587031
     L     41.11719 Bohr with IFC =       7.487274586838
     L     40.80859 Bohr with IFC =       7.487274586711
     L     40.65430 Bohr with IFC =       7.487274586638
     L     40.57715 Bohr with IFC =       7.487274586599
     L     40.53857 Bohr with IFC =       7.487274586579
     L     40.51929 Bohr with IFC =       7.487274586569
     L     40.50964 Bohr with IFC =       7.487274586564
     L     40.50482 Bohr with IFC =       7.487274586561
     L     40.50241 Bohr with IFC =       7.487274586560
     L     40.50121 Bohr with IFC =       7.487274586559
     L     40.50060 Bohr with IFC =       7.487274586559
     L     40.50030 Bohr with IFC =       7.487274586559
     L     40.50015 Bohr with IFC =       7.487274586559
     L     40.50008 Bohr with IFC =       7.487274586559
     L     40.50004 Bohr with IFC =       7.487274586559
     L     40.50002 Bohr with IFC =       7.487274586559
     L     40.50001 Bohr with IFC =       7.487274586559
     L     40.50000 Bohr with IFC =       7.487274586559
     L     40.50000 Bohr with IFC =       7.487274586559
     L     40.50000 Bohr with IFC =       7.487274586559
     L     40.50000 Bohr with IFC =       7.487274586559
     L     40.50000 Bohr with IFC =       7.487274586559
      
      In-plane polarizability in cartesian axis
         15.403713079529766           0.0000000000000000     
         2.2705837869379291E-015      15.403713079527586     
      Out-of-plane polarizability in cartesian axis   0.77495103251100972     
  
 
     Bloch2wane:          1 /          4
     Bloch2wane:          2 /          4
     Bloch2wane:          3 /          4
     Bloch2wane:          4 /          4
 
     Bloch2wanp:          1 /          7
     Bloch2wanp:          2 /          7
     Bloch2wanp:          3 /          7
     Bloch2wanp:          4 /          7
     Bloch2wanp:          5 /          7
     Bloch2wanp:          6 /          7
     Bloch2wanp:          7 /          7

     Writing Hamiltonian, Dynamical matrix and EP vertex in Wann rep to file

     ===================================================================
     Memory usage:  VmHWM =        71Mb
                   VmPeak =       406Mb
     ===================================================================
     
     Using uniform q-mesh:    6   1   1
     Size of q point mesh for interpolation:          6
     Using uniform k-mesh:    1   1   1
     Size of k point mesh for interpolation:          2
     Max number of k points per pool:                2

     Fermi energy coarse grid =  -5.953587 eV

     Skipping the first   24 bands:

     The Fermi level will be determined with   2.00000 electrons

     Fermi energy is calculated from the fine k-mesh: Ef =  -4.456605 eV

     Warning: check if difference with Fermi level fine grid makes sense

     ===================================================================

              ibndmin =     1  ebndmin =    -5.954 eV
              ibndmax =    10  ebndmax =    -2.960 eV


     Number of ep-matrix elements per pool :          900 ~=    7.03 Kb (@ 8 bytes/ DP)
      
     A selecq.fmt file was found but re-created because selecqread == .FALSE. 
     We only need to compute        6 q-points
      
      Electron-phonon vertex |g| (meV)

     iq =       1 coord.:    0.0000000   0.0000000   0.0000000
     ik =       1 coord.:    0.0000000   0.0000000   0.0000000
      ibnd     jbnd     imode   enk[eV]    enk+q[eV]  omega(q)[meV]   |g|[meV]
     ------------------------------------------------------------------------------
        1        1        1     -5.9536     -5.9536       -0.0000009745    0.3220972915E-02
        1        1        2     -5.9536     -5.9536        0.0000005891    0.3220972915E-02
        1        1        3     -5.9536     -5.9536        0.0000008208    0.3220972915E-02
        1        1        4     -5.9536     -5.9536       37.2187877640    0.9073667685E-06
        1        1        5     -5.9536     -5.9536       37.2187877640    0.9073667685E-06
        1        1        6     -5.9536     -5.9536       51.5024306692    0.4000995796E+02
        1        1        7     -5.9536     -5.9536       58.1735350481    0.5977019616E-06
        1        1        8     -5.9536     -5.9536       58.1735350481    0.5977019616E-06
        1        1        9     -5.9536     -5.9536       65.0644394931    0.4349788813E-06
        1        2        1     -5.9536     -5.9536       -0.0000009745    0.3220972915E-02
        1        2        2     -5.9536     -5.9536        0.0000005891    0.3220972915E-02
        1        2        3     -5.9536     -5.9536        0.0000008208    0.3220972915E-02
        1        2        4     -5.9536     -5.9536       37.2187877640    0.9073667685E-06
        1        2        5     -5.9536     -5.9536       37.2187877640    0.9073667685E-06
        1        2        6     -5.9536     -5.9536       51.5024306692    0.4000995796E+02
        1        2        7     -5.9536     -5.9536       58.1735350481    0.5977019616E-06
        1        2        8     -5.9536     -5.9536       58.1735350481    0.5977019616E-06
        1        2        9     -5.9536     -5.9536       65.0644394931    0.4349788813E-06
        1        3        1     -5.9536     -3.1959       -0.0000009745    0.1959446361E-01
        1        3        2     -5.9536     -3.1959        0.0000005891    0.1959446361E-01
        1        3        3     -5.9536     -3.1959        0.0000008208    0.1959446361E-01
        1        3        4     -5.9536     -3.1959       37.2187877640    0.8947642096E+00
        1        3        5     -5.9536     -3.1959       37.2187877640    0.8947642096E+00
        1        3        6     -5.9536     -3.1959       51.5024306692    0.3682449654E-05
        1        3        7     -5.9536     -3.1959       58.1735350481    0.2451152247E-05
        1        3        8     -5.9536     -3.1959       58.1735350481    0.2451152247E-05
        1        3        9     -5.9536     -3.1959       65.0644394931    0.2196544190E-05
        1        4        1     -5.9536     -3.1959       -0.0000009745    0.1959446361E-01
        1        4        2     -5.9536     -3.1959        0.0000005891    0.1959446361E-01
        1        4        3     -5.9536     -3.1959        0.0000008208    0.1959446361E-01
        1        4        4     -5.9536     -3.1959       37.2187877640    0.8947642096E+00
        1        4        5     -5.9536     -3.1959       37.2187877640    0.8947642096E+00
        1        4        6     -5.9536     -3.1959       51.5024306692    0.3682449654E-05
        1        4        7     -5.9536     -3.1959       58.1735350481    0.2451152247E-05
        1        4        8     -5.9536     -3.1959       58.1735350481    0.2451152247E-05
        1        4        9     -5.9536     -3.1959       65.0644394931    0.2196544190E-05
        1        5        1     -5.9536     -3.1959       -0.0000009745    0.1959446361E-01
        1        5        2     -5.9536     -3.1959        0.0000005891    0.1959446361E-01
        1        5        3     -5.9536     -3.1959        0.0000008208    0.1959446361E-01
        1        5        4     -5.9536     -3.1959       37.2187877640    0.8947642096E+00
        1        5        5     -5.9536     -3.1959       37.2187877640    0.8947642096E+00
        1        5        6     -5.9536     -3.1959       51.5024306692    0.3682449654E-05
        1        5        7     -5.9536     -3.1959       58.1735350481    0.2451152247E-05
        1        5        8     -5.9536     -3.1959       58.1735350481    0.2451152247E-05
        1        5        9     -5.9536     -3.1959       65.0644394931    0.2196544190E-05
        1        6        1     -5.9536     -3.1959       -0.0000009745    0.1959446361E-01
        1        6        2     -5.9536     -3.1959        0.0000005891    0.1959446361E-01
        1        6        3     -5.9536     -3.1959        0.0000008208    0.1959446361E-01
        1        6        4     -5.9536     -3.1959       37.2187877640    0.8947642096E+00
        1        6        5     -5.9536     -3.1959       37.2187877640    0.8947642096E+00
        1        6        6     -5.9536     -3.1959       51.5024306692    0.3682449654E-05
        1        6        7     -5.9536     -3.1959       58.1735350481    0.2451152247E-05
        1        6        8     -5.9536     -3.1959       58.1735350481    0.2451152247E-05
        1        6        9     -5.9536     -3.1959       65.0644394931    0.2196544190E-05
        1        7        1     -5.9536     -2.9596       -0.0000009745    0.5553945183E+05
        1        7        2     -5.9536     -2.9596        0.0000005891    0.5553945183E+05
        1        7        3     -5.9536     -2.9596        0.0000008208    0.5553945183E+05
        1        7        4     -5.9536     -2.9596       37.2187877640    0.4337659868E-05
        1        7        5     -5.9536     -2.9596       37.2187877640    0.4337659868E-05
        1        7        6     -5.9536     -2.9596       51.5024306692    0.8411947077E-05
        1        7        7     -5.9536     -2.9596       58.1735350481    0.1779810985E+02
        1        7        8     -5.9536     -2.9596       58.1735350481    0.1779810985E+02
        1        7        9     -5.9536     -2.9596       65.0644394931    0.4070868525E-05
        1        8        1     -5.9536     -2.9596       -0.0000009745    0.5553945183E+05
        1        8        2     -5.9536     -2.9596        0.0000005891    0.5553945183E+05
        1        8        3     -5.9536     -2.9596        0.0000008208    0.5553945183E+05
        1        8        4     -5.9536     -2.9596       37.2187877640    0.4337659868E-05
        1        8        5     -5.9536     -2.9596       37.2187877640    0.4337659868E-05
        1        8        6     -5.9536     -2.9596       51.5024306692    0.8411947077E-05
        1        8        7     -5.9536     -2.9596       58.1735350481    0.1779810985E+02
        1        8        8     -5.9536     -2.9596       58.1735350481    0.1779810985E+02
        1        8        9     -5.9536     -2.9596       65.0644394931    0.4070868525E-05
        1        9        1     -5.9536     -2.9596       -0.0000009745    0.5553945183E+05
        1        9        2     -5.9536     -2.9596        0.0000005891    0.5553945183E+05
        1        9        3     -5.9536     -2.9596        0.0000008208    0.5553945183E+05
        1        9        4     -5.9536     -2.9596       37.2187877640    0.4337659868E-05
        1        9        5     -5.9536     -2.9596       37.2187877640    0.4337659868E-05
        1        9        6     -5.9536     -2.9596       51.5024306692    0.8411947077E-05
        1        9        7     -5.9536     -2.9596       58.1735350481    0.1779810985E+02
        1        9        8     -5.9536     -2.9596       58.1735350481    0.1779810985E+02
        1        9        9     -5.9536     -2.9596       65.0644394931    0.4070868525E-05
        1       10        1     -5.9536     -2.9596       -0.0000009745    0.5553945183E+05
        1       10        2     -5.9536     -2.9596        0.0000005891    0.5553945183E+05
        1       10        3     -5.9536     -2.9596        0.0000008208    0.5553945183E+05
        1       10        4     -5.9536     -2.9596       37.2187877640    0.4337659868E-05
        1       10        5     -5.9536     -2.9596       37.2187877640    0.4337659868E-05
        1       10        6     -5.9536     -2.9596       51.5024306692    0.8411947077E-05
        1       10        7     -5.9536     -2.9596       58.1735350481    0.1779810985E+02
        1       10        8     -5.9536     -2.9596       58.1735350481    0.1779810985E+02
        1       10        9     -5.9536     -2.9596       65.0644394931    0.4070868525E-05
        2        1        1     -5.9536     -5.9536       -0.0000009745    0.3220972915E-02
        2        1        2     -5.9536     -5.9536        0.0000005891    0.3220972915E-02
        2        1        3     -5.9536     -5.9536        0.0000008208    0.3220972915E-02
        2        1        4     -5.9536     -5.9536       37.2187877640    0.9073667685E-06
        2        1        5     -5.9536     -5.9536       37.2187877640    0.9073667685E-06
        2        1        6     -5.9536     -5.9536       51.5024306692    0.4000995796E+02
        2        1        7     -5.9536     -5.9536       58.1735350481    0.5977019616E-06
        2        1        8     -5.9536     -5.9536       58.1735350481    0.5977019616E-06
        2        1        9     -5.9536     -5.9536       65.0644394931    0.4349788813E-06
        2        2        1     -5.9536     -5.9536       -0.0000009745    0.3220972915E-02
        2        2        2     -5.9536     -5.9536        0.0000005891    0.3220972915E-02
        2        2        3     -5.9536     -5.9536        0.0000008208    0.3220972915E-02
        2        2        4     -5.9536     -5.9536       37.2187877640    0.9073667685E-06
        2        2        5     -5.9536     -5.9536       37.2187877640    0.9073667685E-06
        2        2        6     -5.9536     -5.9536       51.5024306692    0.4000995796E+02
        2        2        7     -5.9536     -5.9536       58.1735350481    0.5977019616E-06
        2        2        8     -5.9536     -5.9536       58.1735350481    0.5977019616E-06
        2        2        9     -5.9536     -5.9536       65.0644394931    0.4349788813E-06
        2        3        1     -5.9536     -3.1959       -0.0000009745    0.1959446361E-01
        2        3        2     -5.9536     -3.1959        0.0000005891    0.1959446361E-01
        2        3        3     -5.9536     -3.1959        0.0000008208    0.1959446361E-01
        2        3        4     -5.9536     -3.1959       37.2187877640    0.8947642096E+00
        2        3        5     -5.9536     -3.1959       37.2187877640    0.8947642096E+00
        2        3        6     -5.9536     -3.1959       51.5024306692    0.3682449654E-05
        2        3        7     -5.9536     -3.1959       58.1735350481    0.2451152247E-05
        2        3        8     -5.9536     -3.1959       58.1735350481    0.2451152247E-05
        2        3        9     -5.9536     -3.1959       65.0644394931    0.2196544190E-05
        2        4        1     -5.9536     -3.1959       -0.0000009745    0.1959446361E-01
        2        4        2     -5.9536     -3.1959        0.0000005891    0.1959446361E-01
        2        4        3     -5.9536     -3.1959        0.0000008208    0.1959446361E-01
        2        4        4     -5.9536     -3.1959       37.2187877640    0.8947642096E+00
        2        4        5     -5.9536     -3.1959       37.2187877640    0.8947642096E+00
        2        4        6     -5.9536     -3.1959       51.5024306692    0.3682449654E-05
        2        4        7     -5.9536     -3.1959       58.1735350481    0.2451152247E-05
        2        4        8     -5.9536     -3.1959       58.1735350481    0.2451152247E-05
        2        4        9     -5.9536     -3.1959       65.0644394931    0.2196544190E-05
        2        5        1     -5.9536     -3.1959       -0.0000009745    0.1959446361E-01
        2        5        2     -5.9536     -3.1959        0.0000005891    0.1959446361E-01
        2        5        3     -5.9536     -3.1959        0.0000008208    0.1959446361E-01
        2        5        4     -5.9536     -3.1959       37.2187877640    0.8947642096E+00
        2        5        5     -5.9536     -3.1959       37.2187877640    0.8947642096E+00
        2        5        6     -5.9536     -3.1959       51.5024306692    0.3682449654E-05
        2        5        7     -5.9536     -3.1959       58.1735350481    0.2451152247E-05
        2        5        8     -5.9536     -3.1959       58.1735350481    0.2451152247E-05
        2        5        9     -5.9536     -3.1959       65.0644394931    0.2196544190E-05
        2        6        1     -5.9536     -3.1959       -0.0000009745    0.1959446361E-01
        2        6        2     -5.9536     -3.1959        0.0000005891    0.1959446361E-01
        2        6        3     -5.9536     -3.1959        0.0000008208    0.1959446361E-01
        2        6        4     -5.9536     -3.1959       37.2187877640    0.8947642096E+00
        2        6        5     -5.9536     -3.1959       37.2187877640    0.8947642096E+00
        2        6        6     -5.9536     -3.1959       51.5024306692    0.3682449654E-05
        2        6        7     -5.9536     -3.1959       58.1735350481    0.2451152247E-05
        2        6        8     -5.9536     -3.1959       58.1735350481    0.2451152247E-05
        2        6        9     -5.9536     -3.1959       65.0644394931    0.2196544190E-05
        2        7        1     -5.9536     -2.9596       -0.0000009745    0.5553945183E+05
        2        7        2     -5.9536     -2.9596        0.0000005891    0.5553945183E+05
        2        7        3     -5.9536     -2.9596        0.0000008208    0.5553945183E+05
        2        7        4     -5.9536     -2.9596       37.2187877640    0.4337659868E-05
        2        7        5     -5.9536     -2.9596       37.2187877640    0.4337659868E-05
        2        7        6     -5.9536     -2.9596       51.5024306692    0.8411947077E-05
        2        7        7     -5.9536     -2.9596       58.1735350481    0.1779810985E+02
        2        7        8     -5.9536     -2.9596       58.1735350481    0.1779810985E+02
        2        7        9     -5.9536     -2.9596       65.0644394931    0.4070868525E-05
        2        8        1     -5.9536     -2.9596       -0.0000009745    0.5553945183E+05
        2        8        2     -5.9536     -2.9596        0.0000005891    0.5553945183E+05
        2        8        3     -5.9536     -2.9596        0.0000008208    0.5553945183E+05
        2        8        4     -5.9536     -2.9596       37.2187877640    0.4337659868E-05
        2        8        5     -5.9536     -2.9596       37.2187877640    0.4337659868E-05
        2        8        6     -5.9536     -2.9596       51.5024306692    0.8411947077E-05
        2        8        7     -5.9536     -2.9596       58.1735350481    0.1779810985E+02
        2        8        8     -5.9536     -2.9596       58.1735350481    0.1779810985E+02
        2        8        9     -5.9536     -2.9596       65.0644394931    0.4070868525E-05
        2        9        1     -5.9536     -2.9596       -0.0000009745    0.5553945183E+05
        2        9        2     -5.9536     -2.9596        0.0000005891    0.5553945183E+05
        2        9        3     -5.9536     -2.9596        0.0000008208    0.5553945183E+05
        2        9        4     -5.9536     -2.9596       37.2187877640    0.4337659868E-05
        2        9        5     -5.9536     -2.9596       37.2187877640    0.4337659868E-05
        2        9        6     -5.9536     -2.9596       51.5024306692    0.8411947077E-05
        2        9        7     -5.9536     -2.9596       58.1735350481    0.1779810985E+02
        2        9        8     -5.9536     -2.9596       58.1735350481    0.1779810985E+02
        2        9        9     -5.9536     -2.9596       65.0644394931    0.4070868525E-05
        2       10        1     -5.9536     -2.9596       -0.0000009745    0.5553945183E+05
        2       10        2     -5.9536     -2.9596        0.0000005891    0.5553945183E+05
        2       10        3     -5.9536     -2.9596        0.0000008208    0.5553945183E+05
        2       10        4     -5.9536     -2.9596       37.2187877640    0.4337659868E-05
        2       10        5     -5.9536     -2.9596       37.2187877640    0.4337659868E-05
        2       10        6     -5.9536     -2.9596       51.5024306692    0.8411947077E-05
        2       10        7     -5.9536     -2.9596       58.1735350481    0.1779810985E+02
        2       10        8     -5.9536     -2.9596       58.1735350481    0.1779810985E+02
        2       10        9     -5.9536     -2.9596       65.0644394931    0.4070868525E-05
        3        1        1     -3.1959     -5.9536       -0.0000009745    0.1959446356E-01
        3        1        2     -3.1959     -5.9536        0.0000005891    0.1959446356E-01
        3        1        3     -3.1959     -5.9536        0.0000008208    0.1959446356E-01
        3        1        4     -3.1959     -5.9536       37.2187877640    0.8947642096E+00
        3        1        5     -3.1959     -5.9536       37.2187877640    0.8947642096E+00
        3        1        6     -3.1959     -5.9536       51.5024306692    0.3682449642E-05
        3        1        7     -3.1959     -5.9536       58.1735350481    0.2451152236E-05
        3        1        8     -3.1959     -5.9536       58.1735350481    0.2451152236E-05
        3        1        9     -3.1959     -5.9536       65.0644394931    0.2196544197E-05
        3        2        1     -3.1959     -5.9536       -0.0000009745    0.1959446356E-01
        3        2        2     -3.1959     -5.9536        0.0000005891    0.1959446356E-01
        3        2        3     -3.1959     -5.9536        0.0000008208    0.1959446356E-01
        3        2        4     -3.1959     -5.9536       37.2187877640    0.8947642096E+00
        3        2        5     -3.1959     -5.9536       37.2187877640    0.8947642096E+00
        3        2        6     -3.1959     -5.9536       51.5024306692    0.3682449642E-05
        3        2        7     -3.1959     -5.9536       58.1735350481    0.2451152236E-05
        3        2        8     -3.1959     -5.9536       58.1735350481    0.2451152236E-05
        3        2        9     -3.1959     -5.9536       65.0644394931    0.2196544197E-05
        3        3        1     -3.1959     -3.1959       -0.0000009745    0.7039965520E+03
        3        3        2     -3.1959     -3.1959        0.0000005891    0.7039965520E+03
        3        3        3     -3.1959     -3.1959        0.0000008208    0.7039965520E+03
        3        3        4     -3.1959     -3.1959       37.2187877640    0.1564021185E-04
        3        3        5     -3.1959     -3.1959       37.2187877640    0.1564021185E-04
        3        3        6     -3.1959     -3.1959       51.5024306692    0.1306766446E+02
        3        3        7     -3.1959     -3.1959       58.1735350481    0.7790035107E+02
        3        3        8     -3.1959     -3.1959       58.1735350481    0.7790035107E+02
        3        3        9     -3.1959     -3.1959       65.0644394931    0.2023783210E-05
        3        4        1     -3.1959     -3.1959       -0.0000009745    0.7039965520E+03
        3        4        2     -3.1959     -3.1959        0.0000005891    0.7039965520E+03
        3        4        3     -3.1959     -3.1959        0.0000008208    0.7039965520E+03
        3        4        4     -3.1959     -3.1959       37.2187877640    0.1564021185E-04
        3        4        5     -3.1959     -3.1959       37.2187877640    0.1564021185E-04
        3        4        6     -3.1959     -3.1959       51.5024306692    0.1306766446E+02
        3        4        7     -3.1959     -3.1959       58.1735350481    0.7790035107E+02
        3        4        8     -3.1959     -3.1959       58.1735350481    0.7790035107E+02
        3        4        9     -3.1959     -3.1959       65.0644394931    0.2023783210E-05
        3        5        1     -3.1959     -3.1959       -0.0000009745    0.7039965520E+03
        3        5        2     -3.1959     -3.1959        0.0000005891    0.7039965520E+03
        3        5        3     -3.1959     -3.1959        0.0000008208    0.7039965520E+03
        3        5        4     -3.1959     -3.1959       37.2187877640    0.1564021185E-04
        3        5        5     -3.1959     -3.1959       37.2187877640    0.1564021185E-04
        3        5        6     -3.1959     -3.1959       51.5024306692    0.1306766446E+02
        3        5        7     -3.1959     -3.1959       58.1735350481    0.7790035107E+02
        3        5        8     -3.1959     -3.1959       58.1735350481    0.7790035107E+02
        3        5        9     -3.1959     -3.1959       65.0644394931    0.2023783210E-05
        3        6        1     -3.1959     -3.1959       -0.0000009745    0.7039965520E+03
        3        6        2     -3.1959     -3.1959        0.0000005891    0.7039965520E+03
        3        6        3     -3.1959     -3.1959        0.0000008208    0.7039965520E+03
        3        6        4     -3.1959     -3.1959       37.2187877640    0.1564021185E-04
        3        6        5     -3.1959     -3.1959       37.2187877640    0.1564021185E-04
        3        6        6     -3.1959     -3.1959       51.5024306692    0.1306766446E+02
        3        6        7     -3.1959     -3.1959       58.1735350481    0.7790035107E+02
        3        6        8     -3.1959     -3.1959       58.1735350481    0.7790035107E+02
        3        6        9     -3.1959     -3.1959       65.0644394931    0.2023783210E-05
        3        7        1     -3.1959     -2.9596       -0.0000009745    0.1367818226E+04
        3        7        2     -3.1959     -2.9596        0.0000005891    0.1367818226E+04
        3        7        3     -3.1959     -2.9596        0.0000008208    0.1367818226E+04
        3        7        4     -3.1959     -2.9596       37.2187877640    0.2677344060E+02
        3        7        5     -3.1959     -2.9596       37.2187877640    0.2677344060E+02
        3        7        6     -3.1959     -2.9596       51.5024306692    0.5767203646E-05
        3        7        7     -3.1959     -2.9596       58.1735350481    0.1095176194E-04
        3        7        8     -3.1959     -2.9596       58.1735350481    0.1095176194E-04
        3        7        9     -3.1959     -2.9596       65.0644394931    0.5242695587E+02
        3        8        1     -3.1959     -2.9596       -0.0000009745    0.1367818226E+04
        3        8        2     -3.1959     -2.9596        0.0000005891    0.1367818226E+04
        3        8        3     -3.1959     -2.9596        0.0000008208    0.1367818226E+04
        3        8        4     -3.1959     -2.9596       37.2187877640    0.2677344060E+02
        3        8        5     -3.1959     -2.9596       37.2187877640    0.2677344060E+02
        3        8        6     -3.1959     -2.9596       51.5024306692    0.5767203646E-05
        3        8        7     -3.1959     -2.9596       58.1735350481    0.1095176194E-04
        3        8        8     -3.1959     -2.9596       58.1735350481    0.1095176194E-04
        3        8        9     -3.1959     -2.9596       65.0644394931    0.5242695587E+02
        3        9        1     -3.1959     -2.9596       -0.0000009745    0.1367818226E+04
        3        9        2     -3.1959     -2.9596        0.0000005891    0.1367818226E+04
        3        9        3     -3.1959     -2.9596        0.0000008208    0.1367818226E+04
        3        9        4     -3.1959     -2.9596       37.2187877640    0.2677344060E+02
        3        9        5     -3.1959     -2.9596       37.2187877640    0.2677344060E+02
        3        9        6     -3.1959     -2.9596       51.5024306692    0.5767203646E-05
        3        9        7     -3.1959     -2.9596       58.1735350481    0.1095176194E-04
        3        9        8     -3.1959     -2.9596       58.1735350481    0.1095176194E-04
        3        9        9     -3.1959     -2.9596       65.0644394931    0.5242695587E+02
        3       10        1     -3.1959     -2.9596       -0.0000009745    0.1367818226E+04
        3       10        2     -3.1959     -2.9596        0.0000005891    0.1367818226E+04
        3       10        3     -3.1959     -2.9596        0.0000008208    0.1367818226E+04
        3       10        4     -3.1959     -2.9596       37.2187877640    0.2677344060E+02
        3       10        5     -3.1959     -2.9596       37.2187877640    0.2677344060E+02
        3       10        6     -3.1959     -2.9596       51.5024306692    0.5767203646E-05
        3       10        7     -3.1959     -2.9596       58.1735350481    0.1095176194E-04
        3       10        8     -3.1959     -2.9596       58.1735350481    0.1095176194E-04
        3       10        9     -3.1959     -2.9596       65.0644394931    0.5242695587E+02
        4        1        1     -3.1959     -5.9536       -0.0000009745    0.1959446356E-01
        4        1        2     -3.1959     -5.9536        0.0000005891    0.1959446356E-01
        4        1        3     -3.1959     -5.9536        0.0000008208    0.1959446356E-01
        4        1        4     -3.1959     -5.9536       37.2187877640    0.8947642096E+00
        4        1        5     -3.1959     -5.9536       37.2187877640    0.8947642096E+00
        4        1        6     -3.1959     -5.9536       51.5024306692    0.3682449642E-05
        4        1        7     -3.1959     -5.9536       58.1735350481    0.2451152236E-05
        4        1        8     -3.1959     -5.9536       58.1735350481    0.2451152236E-05
        4        1        9     -3.1959     -5.9536       65.0644394931    0.2196544197E-05
        4        2        1     -3.1959     -5.9536       -0.0000009745    0.1959446356E-01
        4        2        2     -3.1959     -5.9536        0.0000005891    0.1959446356E-01
        4        2        3     -3.1959     -5.9536        0.0000008208    0.1959446356E-01
        4        2        4     -3.1959     -5.9536       37.2187877640    0.8947642096E+00
        4        2        5     -3.1959     -5.9536       37.2187877640    0.8947642096E+00
        4        2        6     -3.1959     -5.9536       51.5024306692    0.3682449642E-05
        4        2        7     -3.1959     -5.9536       58.1735350481    0.2451152236E-05
        4        2        8     -3.1959     -5.9536       58.1735350481    0.2451152236E-05
        4        2        9     -3.1959     -5.9536       65.0644394931    0.2196544197E-05
        4        3        1     -3.1959     -3.1959       -0.0000009745    0.7039965520E+03
        4        3        2     -3.1959     -3.1959        0.0000005891    0.7039965520E+03
        4        3        3     -3.1959     -3.1959        0.0000008208    0.7039965520E+03
        4        3        4     -3.1959     -3.1959       37.2187877640    0.1564021185E-04
        4        3        5     -3.1959     -3.1959       37.2187877640    0.1564021185E-04
        4        3        6     -3.1959     -3.1959       51.5024306692    0.1306766446E+02
        4        3        7     -3.1959     -3.1959       58.1735350481    0.7790035107E+02
        4        3        8     -3.1959     -3.1959       58.1735350481    0.7790035107E+02
        4        3        9     -3.1959     -3.1959       65.0644394931    0.2023783210E-05
        4        4        1     -3.1959     -3.1959       -0.0000009745    0.7039965520E+03
        4        4        2     -3.1959     -3.1959        0.0000005891    0.7039965520E+03
        4        4        3     -3.1959     -3.1959        0.0000008208    0.7039965520E+03
        4        4        4     -3.1959     -3.1959       37.2187877640    0.1564021185E-04
        4        4        5     -3.1959     -3.1959       37.2187877640    0.1564021185E-04
        4        4        6     -3.1959     -3.1959       51.5024306692    0.1306766446E+02
        4        4        7     -3.1959     -3.1959       58.1735350481    0.7790035107E+02
        4        4        8     -3.1959     -3.1959       58.1735350481    0.7790035107E+02
        4        4        9     -3.1959     -3.1959       65.0644394931    0.2023783210E-05
        4        5        1     -3.1959     -3.1959       -0.0000009745    0.7039965520E+03
        4        5        2     -3.1959     -3.1959        0.0000005891    0.7039965520E+03
        4        5        3     -3.1959     -3.1959        0.0000008208    0.7039965520E+03
        4        5        4     -3.1959     -3.1959       37.2187877640    0.1564021185E-04
        4        5        5     -3.1959     -3.1959       37.2187877640    0.1564021185E-04
        4        5        6     -3.1959     -3.1959       51.5024306692    0.1306766446E+02
        4        5        7     -3.1959     -3.1959       58.1735350481    0.7790035107E+02
        4        5        8     -3.1959     -3.1959       58.1735350481    0.7790035107E+02
        4        5        9     -3.1959     -3.1959       65.0644394931    0.2023783210E-05
        4        6        1     -3.1959     -3.1959       -0.0000009745    0.7039965520E+03
        4        6        2     -3.1959     -3.1959        0.0000005891    0.7039965520E+03
        4        6        3     -3.1959     -3.1959        0.0000008208    0.7039965520E+03
        4        6        4     -3.1959     -3.1959       37.2187877640    0.1564021185E-04
        4        6        5     -3.1959     -3.1959       37.2187877640    0.1564021185E-04
        4        6        6     -3.1959     -3.1959       51.5024306692    0.1306766446E+02
        4        6        7     -3.1959     -3.1959       58.1735350481    0.7790035107E+02
        4        6        8     -3.1959     -3.1959       58.1735350481    0.7790035107E+02
        4        6        9     -3.1959     -3.1959       65.0644394931    0.2023783210E-05
        4        7        1     -3.1959     -2.9596       -0.0000009745    0.1367818226E+04
        4        7        2     -3.1959     -2.9596        0.0000005891    0.1367818226E+04
        4        7        3     -3.1959     -2.9596        0.0000008208    0.1367818226E+04
        4        7        4     -3.1959     -2.9596       37.2187877640    0.2677344060E+02
        4        7        5     -3.1959     -2.9596       37.2187877640    0.2677344060E+02
        4        7        6     -3.1959     -2.9596       51.5024306692    0.5767203646E-05
        4        7        7     -3.1959     -2.9596       58.1735350481    0.1095176194E-04
        4        7        8     -3.1959     -2.9596       58.1735350481    0.1095176194E-04
        4        7        9     -3.1959     -2.9596       65.0644394931    0.5242695587E+02
        4        8        1     -3.1959     -2.9596       -0.0000009745    0.1367818226E+04
        4        8        2     -3.1959     -2.9596        0.0000005891    0.1367818226E+04
        4        8        3     -3.1959     -2.9596        0.0000008208    0.1367818226E+04
        4        8        4     -3.1959     -2.9596       37.2187877640    0.2677344060E+02
        4        8        5     -3.1959     -2.9596       37.2187877640    0.2677344060E+02
        4        8        6     -3.1959     -2.9596       51.5024306692    0.5767203646E-05
        4        8        7     -3.1959     -2.9596       58.1735350481    0.1095176194E-04
        4        8        8     -3.1959     -2.9596       58.1735350481    0.1095176194E-04
        4        8        9     -3.1959     -2.9596       65.0644394931    0.5242695587E+02
        4        9        1     -3.1959     -2.9596       -0.0000009745    0.1367818226E+04
        4        9        2     -3.1959     -2.9596        0.0000005891    0.1367818226E+04
        4        9        3     -3.1959     -2.9596        0.0000008208    0.1367818226E+04
        4        9        4     -3.1959     -2.9596       37.2187877640    0.2677344060E+02
        4        9        5     -3.1959     -2.9596       37.2187877640    0.2677344060E+02
        4        9        6     -3.1959     -2.9596       51.5024306692    0.5767203646E-05
        4        9        7     -3.1959     -2.9596       58.1735350481    0.1095176194E-04
        4        9        8     -3.1959     -2.9596       58.1735350481    0.1095176194E-04
        4        9        9     -3.1959     -2.9596       65.0644394931    0.5242695587E+02
        4       10        1     -3.1959     -2.9596       -0.0000009745    0.1367818226E+04
        4       10        2     -3.1959     -2.9596        0.0000005891    0.1367818226E+04
        4       10        3     -3.1959     -2.9596        0.0000008208    0.1367818226E+04
        4       10        4     -3.1959     -2.9596       37.2187877640    0.2677344060E+02
        4       10        5     -3.1959     -2.9596       37.2187877640    0.2677344060E+02
        4       10        6     -3.1959     -2.9596       51.5024306692    0.5767203646E-05
        4       10        7     -3.1959     -2.9596       58.1735350481    0.1095176194E-04
        4       10        8     -3.1959     -2.9596       58.1735350481    0.1095176194E-04
        4       10        9     -3.1959     -2.9596       65.0644394931    0.5242695587E+02
        5        1        1     -3.1959     -5.9536       -0.0000009745    0.1959446356E-01
        5        1        2     -3.1959     -5.9536        0.0000005891    0.1959446356E-01
        5        1        3     -3.1959     -5.9536        0.0000008208    0.1959446356E-01
        5        1        4     -3.1959     -5.9536       37.2187877640    0.8947642096E+00
        5        1        5     -3.1959     -5.9536       37.2187877640    0.8947642096E+00
        5        1        6     -3.1959     -5.9536       51.5024306692    0.3682449642E-05
        5        1        7     -3.1959     -5.9536       58.1735350481    0.2451152236E-05
        5        1        8     -3.1959     -5.9536       58.1735350481    0.2451152236E-05
        5        1        9     -3.1959     -5.9536       65.0644394931    0.2196544197E-05
        5        2        1     -3.1959     -5.9536       -0.0000009745    0.1959446356E-01
        5        2        2     -3.1959     -5.9536        0.0000005891    0.1959446356E-01
        5        2        3     -3.1959     -5.9536        0.0000008208    0.1959446356E-01
        5        2        4     -3.1959     -5.9536       37.2187877640    0.8947642096E+00
        5        2        5     -3.1959     -5.9536       37.2187877640    0.8947642096E+00
        5        2        6     -3.1959     -5.9536       51.5024306692    0.3682449642E-05
        5        2        7     -3.1959     -5.9536       58.1735350481    0.2451152236E-05
        5        2        8     -3.1959     -5.9536       58.1735350481    0.2451152236E-05
        5        2        9     -3.1959     -5.9536       65.0644394931    0.2196544197E-05
        5        3        1     -3.1959     -3.1959       -0.0000009745    0.7039965520E+03
        5        3        2     -3.1959     -3.1959        0.0000005891    0.7039965520E+03
        5        3        3     -3.1959     -3.1959        0.0000008208    0.7039965520E+03
        5        3        4     -3.1959     -3.1959       37.2187877640    0.1564021185E-04
        5        3        5     -3.1959     -3.1959       37.2187877640    0.1564021185E-04
        5        3        6     -3.1959     -3.1959       51.5024306692    0.1306766446E+02
        5        3        7     -3.1959     -3.1959       58.1735350481    0.7790035107E+02
        5        3        8     -3.1959     -3.1959       58.1735350481    0.7790035107E+02
        5        3        9     -3.1959     -3.1959       65.0644394931    0.2023783210E-05
        5        4        1     -3.1959     -3.1959       -0.0000009745    0.7039965520E+03
        5        4        2     -3.1959     -3.1959        0.0000005891    0.7039965520E+03
        5        4        3     -3.1959     -3.1959        0.0000008208    0.7039965520E+03
        5        4        4     -3.1959     -3.1959       37.2187877640    0.1564021185E-04
        5        4        5     -3.1959     -3.1959       37.2187877640    0.1564021185E-04
        5        4        6     -3.1959     -3.1959       51.5024306692    0.1306766446E+02
        5        4        7     -3.1959     -3.1959       58.1735350481    0.7790035107E+02
        5        4        8     -3.1959     -3.1959       58.1735350481    0.7790035107E+02
        5        4        9     -3.1959     -3.1959       65.0644394931    0.2023783210E-05
        5        5        1     -3.1959     -3.1959       -0.0000009745    0.7039965520E+03
        5        5        2     -3.1959     -3.1959        0.0000005891    0.7039965520E+03
        5        5        3     -3.1959     -3.1959        0.0000008208    0.7039965520E+03
        5        5        4     -3.1959     -3.1959       37.2187877640    0.1564021185E-04
        5        5        5     -3.1959     -3.1959       37.2187877640    0.1564021185E-04
        5        5        6     -3.1959     -3.1959       51.5024306692    0.1306766446E+02
        5        5        7     -3.1959     -3.1959       58.1735350481    0.7790035107E+02
        5        5        8     -3.1959     -3.1959       58.1735350481    0.7790035107E+02
        5        5        9     -3.1959     -3.1959       65.0644394931    0.2023783210E-05
        5        6        1     -3.1959     -3.1959       -0.0000009745    0.7039965520E+03
        5        6        2     -3.1959     -3.1959        0.0000005891    0.7039965520E+03
        5        6        3     -3.1959     -3.1959        0.0000008208    0.7039965520E+03
        5        6        4     -3.1959     -3.1959       37.2187877640    0.1564021185E-04
        5        6        5     -3.1959     -3.1959       37.2187877640    0.1564021185E-04
        5        6        6     -3.1959     -3.1959       51.5024306692    0.1306766446E+02
        5        6        7     -3.1959     -3.1959       58.1735350481    0.7790035107E+02
        5        6        8     -3.1959     -3.1959       58.1735350481    0.7790035107E+02
        5        6        9     -3.1959     -3.1959       65.0644394931    0.2023783210E-05
        5        7        1     -3.1959     -2.9596       -0.0000009745    0.1367818226E+04
        5        7        2     -3.1959     -2.9596        0.0000005891    0.1367818226E+04
        5        7        3     -3.1959     -2.9596        0.0000008208    0.1367818226E+04
        5        7        4     -3.1959     -2.9596       37.2187877640    0.2677344060E+02
        5        7        5     -3.1959     -2.9596       37.2187877640    0.2677344060E+02
        5        7        6     -3.1959     -2.9596       51.5024306692    0.5767203646E-05
        5        7        7     -3.1959     -2.9596       58.1735350481    0.1095176194E-04
        5        7        8     -3.1959     -2.9596       58.1735350481    0.1095176194E-04
        5        7        9     -3.1959     -2.9596       65.0644394931    0.5242695587E+02
        5        8        1     -3.1959     -2.9596       -0.0000009745    0.1367818226E+04
        5        8        2     -3.1959     -2.9596        0.0000005891    0.1367818226E+04
        5        8        3     -3.1959     -2.9596        0.0000008208    0.1367818226E+04
        5        8        4     -3.1959     -2.9596       37.2187877640    0.2677344060E+02
        5        8        5     -3.1959     -2.9596       37.2187877640    0.2677344060E+02
        5        8        6     -3.1959     -2.9596       51.5024306692    0.5767203646E-05
        5        8        7     -3.1959     -2.9596       58.1735350481    0.1095176194E-04
        5        8        8     -3.1959     -2.9596       58.1735350481    0.1095176194E-04
        5        8        9     -3.1959     -2.9596       65.0644394931    0.5242695587E+02
        5        9        1     -3.1959     -2.9596       -0.0000009745    0.1367818226E+04
        5        9        2     -3.1959     -2.9596        0.0000005891    0.1367818226E+04
        5        9        3     -3.1959     -2.9596        0.0000008208    0.1367818226E+04
        5        9        4     -3.1959     -2.9596       37.2187877640    0.2677344060E+02
        5        9        5     -3.1959     -2.9596       37.2187877640    0.2677344060E+02
        5        9        6     -3.1959     -2.9596       51.5024306692    0.5767203646E-05
        5        9        7     -3.1959     -2.9596       58.1735350481    0.1095176194E-04
        5        9        8     -3.1959     -2.9596       58.1735350481    0.1095176194E-04
        5        9        9     -3.1959     -2.9596       65.0644394931    0.5242695587E+02
        5       10        1     -3.1959     -2.9596       -0.0000009745    0.1367818226E+04
        5       10        2     -3.1959     -2.9596        0.0000005891    0.1367818226E+04
        5       10        3     -3.1959     -2.9596        0.0000008208    0.1367818226E+04
        5       10        4     -3.1959     -2.9596       37.2187877640    0.2677344060E+02
        5       10        5     -3.1959     -2.9596       37.2187877640    0.2677344060E+02
        5       10        6     -3.1959     -2.9596       51.5024306692    0.5767203646E-05
        5       10        7     -3.1959     -2.9596       58.1735350481    0.1095176194E-04
        5       10        8     -3.1959     -2.9596       58.1735350481    0.1095176194E-04
        5       10        9     -3.1959     -2.9596       65.0644394931    0.5242695587E+02
        6        1        1     -3.1959     -5.9536       -0.0000009745    0.1959446356E-01
        6        1        2     -3.1959     -5.9536        0.0000005891    0.1959446356E-01
        6        1        3     -3.1959     -5.9536        0.0000008208    0.1959446356E-01
        6        1        4     -3.1959     -5.9536       37.2187877640    0.8947642096E+00
        6        1        5     -3.1959     -5.9536       37.2187877640    0.8947642096E+00
        6        1        6     -3.1959     -5.9536       51.5024306692    0.3682449642E-05
        6        1        7     -3.1959     -5.9536       58.1735350481    0.2451152236E-05
        6        1        8     -3.1959     -5.9536       58.1735350481    0.2451152236E-05
        6        1        9     -3.1959     -5.9536       65.0644394931    0.2196544197E-05
        6        2        1     -3.1959     -5.9536       -0.0000009745    0.1959446356E-01
        6        2        2     -3.1959     -5.9536        0.0000005891    0.1959446356E-01
        6        2        3     -3.1959     -5.9536        0.0000008208    0.1959446356E-01
        6        2        4     -3.1959     -5.9536       37.2187877640    0.8947642096E+00
        6        2        5     -3.1959     -5.9536       37.2187877640    0.8947642096E+00
        6        2        6     -3.1959     -5.9536       51.5024306692    0.3682449642E-05
        6        2        7     -3.1959     -5.9536       58.1735350481    0.2451152236E-05
        6        2        8     -3.1959     -5.9536       58.1735350481    0.2451152236E-05
        6        2        9     -3.1959     -5.9536       65.0644394931    0.2196544197E-05
        6        3        1     -3.1959     -3.1959       -0.0000009745    0.7039965520E+03
        6        3        2     -3.1959     -3.1959        0.0000005891    0.7039965520E+03
        6        3        3     -3.1959     -3.1959        0.0000008208    0.7039965520E+03
        6        3        4     -3.1959     -3.1959       37.2187877640    0.1564021185E-04
        6        3        5     -3.1959     -3.1959       37.2187877640    0.1564021185E-04
        6        3        6     -3.1959     -3.1959       51.5024306692    0.1306766446E+02
        6        3        7     -3.1959     -3.1959       58.1735350481    0.7790035107E+02
        6        3        8     -3.1959     -3.1959       58.1735350481    0.7790035107E+02
        6        3        9     -3.1959     -3.1959       65.0644394931    0.2023783210E-05
        6        4        1     -3.1959     -3.1959       -0.0000009745    0.7039965520E+03
        6        4        2     -3.1959     -3.1959        0.0000005891    0.7039965520E+03
        6        4        3     -3.1959     -3.1959        0.0000008208    0.7039965520E+03
        6        4        4     -3.1959     -3.1959       37.2187877640    0.1564021185E-04
        6        4        5     -3.1959     -3.1959       37.2187877640    0.1564021185E-04
        6        4        6     -3.1959     -3.1959       51.5024306692    0.1306766446E+02
        6        4        7     -3.1959     -3.1959       58.1735350481    0.7790035107E+02
        6        4        8     -3.1959     -3.1959       58.1735350481    0.7790035107E+02
        6        4        9     -3.1959     -3.1959       65.0644394931    0.2023783210E-05
        6        5        1     -3.1959     -3.1959       -0.0000009745    0.7039965520E+03
        6        5        2     -3.1959     -3.1959        0.0000005891    0.7039965520E+03
        6        5        3     -3.1959     -3.1959        0.0000008208    0.7039965520E+03
        6        5        4     -3.1959     -3.1959       37.2187877640    0.1564021185E-04
        6        5        5     -3.1959     -3.1959       37.2187877640    0.1564021185E-04
        6        5        6     -3.1959     -3.1959       51.5024306692    0.1306766446E+02
        6        5        7     -3.1959     -3.1959       58.1735350481    0.7790035107E+02
        6        5        8     -3.1959     -3.1959       58.1735350481    0.7790035107E+02
        6        5        9     -3.1959     -3.1959       65.0644394931    0.2023783210E-05
        6        6        1     -3.1959     -3.1959       -0.0000009745    0.7039965520E+03
        6        6        2     -3.1959     -3.1959        0.0000005891    0.7039965520E+03
        6        6        3     -3.1959     -3.1959        0.0000008208    0.7039965520E+03
        6        6        4     -3.1959     -3.1959       37.2187877640    0.1564021185E-04
        6        6        5     -3.1959     -3.1959       37.2187877640    0.1564021185E-04
        6        6        6     -3.1959     -3.1959       51.5024306692    0.1306766446E+02
        6        6        7     -3.1959     -3.1959       58.1735350481    0.7790035107E+02
        6        6        8     -3.1959     -3.1959       58.1735350481    0.7790035107E+02
        6        6        9     -3.1959     -3.1959       65.0644394931    0.2023783210E-05
        6        7        1     -3.1959     -2.9596       -0.0000009745    0.1367818226E+04
        6        7        2     -3.1959     -2.9596        0.0000005891    0.1367818226E+04
        6        7        3     -3.1959     -2.9596        0.0000008208    0.1367818226E+04
        6        7        4     -3.1959     -2.9596       37.2187877640    0.2677344060E+02
        6        7        5     -3.1959     -2.9596       37.2187877640    0.2677344060E+02
        6        7        6     -3.1959     -2.9596       51.5024306692    0.5767203646E-05
        6        7        7     -3.1959     -2.9596       58.1735350481    0.1095176194E-04
        6        7        8     -3.1959     -2.9596       58.1735350481    0.1095176194E-04
        6        7        9     -3.1959     -2.9596       65.0644394931    0.5242695587E+02
        6        8        1     -3.1959     -2.9596       -0.0000009745    0.1367818226E+04
        6        8        2     -3.1959     -2.9596        0.0000005891    0.1367818226E+04
        6        8        3     -3.1959     -2.9596        0.0000008208    0.1367818226E+04
        6        8        4     -3.1959     -2.9596       37.2187877640    0.2677344060E+02
        6        8        5     -3.1959     -2.9596       37.2187877640    0.2677344060E+02
        6        8        6     -3.1959     -2.9596       51.5024306692    0.5767203646E-05
        6        8        7     -3.1959     -2.9596       58.1735350481    0.1095176194E-04
        6        8        8     -3.1959     -2.9596       58.1735350481    0.1095176194E-04
        6        8        9     -3.1959     -2.9596       65.0644394931    0.5242695587E+02
        6        9        1     -3.1959     -2.9596       -0.0000009745    0.1367818226E+04
        6        9        2     -3.1959     -2.9596        0.0000005891    0.1367818226E+04
        6        9        3     -3.1959     -2.9596        0.0000008208    0.1367818226E+04
        6        9        4     -3.1959     -2.9596       37.2187877640    0.2677344060E+02
        6        9        5     -3.1959     -2.9596       37.2187877640    0.2677344060E+02
        6        9        6     -3.1959     -2.9596       51.5024306692    0.5767203646E-05
        6        9        7     -3.1959     -2.9596       58.1735350481    0.1095176194E-04
        6        9        8     -3.1959     -2.9596       58.1735350481    0.1095176194E-04
        6        9        9     -3.1959     -2.9596       65.0644394931    0.5242695587E+02
        6       10        1     -3.1959     -2.9596       -0.0000009745    0.1367818226E+04
        6       10        2     -3.1959     -2.9596        0.0000005891    0.1367818226E+04
        6       10        3     -3.1959     -2.9596        0.0000008208    0.1367818226E+04
        6       10        4     -3.1959     -2.9596       37.2187877640    0.2677344060E+02
        6       10        5     -3.1959     -2.9596       37.2187877640    0.2677344060E+02
        6       10        6     -3.1959     -2.9596       51.5024306692    0.5767203646E-05
        6       10        7     -3.1959     -2.9596       58.1735350481    0.1095176194E-04
        6       10        8     -3.1959     -2.9596       58.1735350481    0.1095176194E-04
        6       10        9     -3.1959     -2.9596       65.0644394931    0.5242695587E+02
        7        1        1     -2.9596     -5.9536       -0.0000009745    0.5553945183E+05
        7        1        2     -2.9596     -5.9536        0.0000005891    0.5553945183E+05
        7        1        3     -2.9596     -5.9536        0.0000008208    0.5553945183E+05
        7        1        4     -2.9596     -5.9536       37.2187877640    0.4337659867E-05
        7        1        5     -2.9596     -5.9536       37.2187877640    0.4337659867E-05
        7        1        6     -2.9596     -5.9536       51.5024306692    0.8411947096E-05
        7        1        7     -2.9596     -5.9536       58.1735350481    0.1779810985E+02
        7        1        8     -2.9596     -5.9536       58.1735350481    0.1779810985E+02
        7        1        9     -2.9596     -5.9536       65.0644394931    0.4070868515E-05
        7        2        1     -2.9596     -5.9536       -0.0000009745    0.5553945183E+05
        7        2        2     -2.9596     -5.9536        0.0000005891    0.5553945183E+05
        7        2        3     -2.9596     -5.9536        0.0000008208    0.5553945183E+05
        7        2        4     -2.9596     -5.9536       37.2187877640    0.4337659867E-05
        7        2        5     -2.9596     -5.9536       37.2187877640    0.4337659867E-05
        7        2        6     -2.9596     -5.9536       51.5024306692    0.8411947096E-05
        7        2        7     -2.9596     -5.9536       58.1735350481    0.1779810985E+02
        7        2        8     -2.9596     -5.9536       58.1735350481    0.1779810985E+02
        7        2        9     -2.9596     -5.9536       65.0644394931    0.4070868515E-05
        7        3        1     -2.9596     -3.1959       -0.0000009745    0.1367818226E+04
        7        3        2     -2.9596     -3.1959        0.0000005891    0.1367818226E+04
        7        3        3     -2.9596     -3.1959        0.0000008208    0.1367818226E+04
        7        3        4     -2.9596     -3.1959       37.2187877640    0.2677344060E+02
        7        3        5     -2.9596     -3.1959       37.2187877640    0.2677344060E+02
        7        3        6     -2.9596     -3.1959       51.5024306692    0.5767203644E-05
        7        3        7     -2.9596     -3.1959       58.1735350481    0.1095176193E-04
        7        3        8     -2.9596     -3.1959       58.1735350481    0.1095176193E-04
        7        3        9     -2.9596     -3.1959       65.0644394931    0.5242695587E+02
        7        4        1     -2.9596     -3.1959       -0.0000009745    0.1367818226E+04
        7        4        2     -2.9596     -3.1959        0.0000005891    0.1367818226E+04
        7        4        3     -2.9596     -3.1959        0.0000008208    0.1367818226E+04
        7        4        4     -2.9596     -3.1959       37.2187877640    0.2677344060E+02
        7        4        5     -2.9596     -3.1959       37.2187877640    0.2677344060E+02
        7        4        6     -2.9596     -3.1959       51.5024306692    0.5767203644E-05
        7        4        7     -2.9596     -3.1959       58.1735350481    0.1095176193E-04
        7        4        8     -2.9596     -3.1959       58.1735350481    0.1095176193E-04
        7        4        9     -2.9596     -3.1959       65.0644394931    0.5242695587E+02
        7        5        1     -2.9596     -3.1959       -0.0000009745    0.1367818226E+04
        7        5        2     -2.9596     -3.1959        0.0000005891    0.1367818226E+04
        7        5        3     -2.9596     -3.1959        0.0000008208    0.1367818226E+04
        7        5        4     -2.9596     -3.1959       37.2187877640    0.2677344060E+02
        7        5        5     -2.9596     -3.1959       37.2187877640    0.2677344060E+02
        7        5        6     -2.9596     -3.1959       51.5024306692    0.5767203644E-05
        7        5        7     -2.9596     -3.1959       58.1735350481    0.1095176193E-04
        7        5        8     -2.9596     -3.1959       58.1735350481    0.1095176193E-04
        7        5        9     -2.9596     -3.1959       65.0644394931    0.5242695587E+02
        7        6        1     -2.9596     -3.1959       -0.0000009745    0.1367818226E+04
        7        6        2     -2.9596     -3.1959        0.0000005891    0.1367818226E+04
        7        6        3     -2.9596     -3.1959        0.0000008208    0.1367818226E+04
        7        6        4     -2.9596     -3.1959       37.2187877640    0.2677344060E+02
        7        6        5     -2.9596     -3.1959       37.2187877640    0.2677344060E+02
        7        6        6     -2.9596     -3.1959       51.5024306692    0.5767203644E-05
        7        6        7     -2.9596     -3.1959       58.1735350481    0.1095176193E-04
        7        6        8     -2.9596     -3.1959       58.1735350481    0.1095176193E-04
        7        6        9     -2.9596     -3.1959       65.0644394931    0.5242695587E+02
        7        7        1     -2.9596     -2.9596       -0.0000009745    0.8848073520E+03
        7        7        2     -2.9596     -2.9596        0.0000005891    0.8848073520E+03
        7        7        3     -2.9596     -2.9596        0.0000008208    0.8848073520E+03
        7        7        4     -2.9596     -2.9596       37.2187877640    0.1380331050E-04
        7        7        5     -2.9596     -2.9596       37.2187877640    0.1380331050E-04
        7        7        6     -2.9596     -2.9596       51.5024306692    0.1907847970E+02
        7        7        7     -2.9596     -2.9596       58.1735350481    0.3318144596E+02
        7        7        8     -2.9596     -2.9596       58.1735350481    0.3318144596E+02
        7        7        9     -2.9596     -2.9596       65.0644394931    0.2577759783E-05
        7        8        1     -2.9596     -2.9596       -0.0000009745    0.8848073520E+03
        7        8        2     -2.9596     -2.9596        0.0000005891    0.8848073520E+03
        7        8        3     -2.9596     -2.9596        0.0000008208    0.8848073520E+03
        7        8        4     -2.9596     -2.9596       37.2187877640    0.1380331050E-04
        7        8        5     -2.9596     -2.9596       37.2187877640    0.1380331050E-04
        7        8        6     -2.9596     -2.9596       51.5024306692    0.1907847970E+02
        7        8        7     -2.9596     -2.9596       58.1735350481    0.3318144596E+02
        7        8        8     -2.9596     -2.9596       58.1735350481    0.3318144596E+02
        7        8        9     -2.9596     -2.9596       65.0644394931    0.2577759783E-05
        7        9        1     -2.9596     -2.9596       -0.0000009745    0.8848073520E+03
        7        9        2     -2.9596     -2.9596        0.0000005891    0.8848073520E+03
        7        9        3     -2.9596     -2.9596        0.0000008208    0.8848073520E+03
        7        9        4     -2.9596     -2.9596       37.2187877640    0.1380331050E-04
        7        9        5     -2.9596     -2.9596       37.2187877640    0.1380331050E-04
        7        9        6     -2.9596     -2.9596       51.5024306692    0.1907847970E+02
        7        9        7     -2.9596     -2.9596       58.1735350481    0.3318144596E+02
        7        9        8     -2.9596     -2.9596       58.1735350481    0.3318144596E+02
        7        9        9     -2.9596     -2.9596       65.0644394931    0.2577759783E-05
        7       10        1     -2.9596     -2.9596       -0.0000009745    0.8848073520E+03
        7       10        2     -2.9596     -2.9596        0.0000005891    0.8848073520E+03
        7       10        3     -2.9596     -2.9596        0.0000008208    0.8848073520E+03
        7       10        4     -2.9596     -2.9596       37.2187877640    0.1380331050E-04
        7       10        5     -2.9596     -2.9596       37.2187877640    0.1380331050E-04
        7       10        6     -2.9596     -2.9596       51.5024306692    0.1907847970E+02
        7       10        7     -2.9596     -2.9596       58.1735350481    0.3318144596E+02
        7       10        8     -2.9596     -2.9596       58.1735350481    0.3318144596E+02
        7       10        9     -2.9596     -2.9596       65.0644394931    0.2577759783E-05
        8        1        1     -2.9596     -5.9536       -0.0000009745    0.5553945183E+05
        8        1        2     -2.9596     -5.9536        0.0000005891    0.5553945183E+05
        8        1        3     -2.9596     -5.9536        0.0000008208    0.5553945183E+05
        8        1        4     -2.9596     -5.9536       37.2187877640    0.4337659867E-05
        8        1        5     -2.9596     -5.9536       37.2187877640    0.4337659867E-05
        8        1        6     -2.9596     -5.9536       51.5024306692    0.8411947096E-05
        8        1        7     -2.9596     -5.9536       58.1735350481    0.1779810985E+02
        8        1        8     -2.9596     -5.9536       58.1735350481    0.1779810985E+02
        8        1        9     -2.9596     -5.9536       65.0644394931    0.4070868515E-05
        8        2        1     -2.9596     -5.9536       -0.0000009745    0.5553945183E+05
        8        2        2     -2.9596     -5.9536        0.0000005891    0.5553945183E+05
        8        2        3     -2.9596     -5.9536        0.0000008208    0.5553945183E+05
        8        2        4     -2.9596     -5.9536       37.2187877640    0.4337659867E-05
        8        2        5     -2.9596     -5.9536       37.2187877640    0.4337659867E-05
        8        2        6     -2.9596     -5.9536       51.5024306692    0.8411947096E-05
        8        2        7     -2.9596     -5.9536       58.1735350481    0.1779810985E+02
        8        2        8     -2.9596     -5.9536       58.1735350481    0.1779810985E+02
        8        2        9     -2.9596     -5.9536       65.0644394931    0.4070868515E-05
        8        3        1     -2.9596     -3.1959       -0.0000009745    0.1367818226E+04
        8        3        2     -2.9596     -3.1959        0.0000005891    0.1367818226E+04
        8        3        3     -2.9596     -3.1959        0.0000008208    0.1367818226E+04
        8        3        4     -2.9596     -3.1959       37.2187877640    0.2677344060E+02
        8        3        5     -2.9596     -3.1959       37.2187877640    0.2677344060E+02
        8        3        6     -2.9596     -3.1959       51.5024306692    0.5767203644E-05
        8        3        7     -2.9596     -3.1959       58.1735350481    0.1095176193E-04
        8        3        8     -2.9596     -3.1959       58.1735350481    0.1095176193E-04
        8        3        9     -2.9596     -3.1959       65.0644394931    0.5242695587E+02
        8        4        1     -2.9596     -3.1959       -0.0000009745    0.1367818226E+04
        8        4        2     -2.9596     -3.1959        0.0000005891    0.1367818226E+04
        8        4        3     -2.9596     -3.1959        0.0000008208    0.1367818226E+04
        8        4        4     -2.9596     -3.1959       37.2187877640    0.2677344060E+02
        8        4        5     -2.9596     -3.1959       37.2187877640    0.2677344060E+02
        8        4        6     -2.9596     -3.1959       51.5024306692    0.5767203644E-05
        8        4        7     -2.9596     -3.1959       58.1735350481    0.1095176193E-04
        8        4        8     -2.9596     -3.1959       58.1735350481    0.1095176193E-04
        8        4        9     -2.9596     -3.1959       65.0644394931    0.5242695587E+02
[...]
        8        9        4     -2.9596     -2.6128       37.4211938218    0.2035091968E+02
        8        9        5     -2.9596     -2.6128       37.9590532948    0.1385070502E+02
        8        9        6     -2.9596     -2.6128       49.9339552096    0.8851032235E-05
        8        9        7     -2.9596     -2.6128       54.2949499009    0.5305046227E-05
        8        9        8     -2.9596     -2.6128       56.0923889541    0.7731008289E-05
        8        9        9     -2.9596     -2.6128       61.0977134042    0.5546274365E+02
        8       10        1     -2.9596     -2.6128        8.1220855271    0.1706717649E-04
        8       10        2     -2.9596     -2.6128       12.8050603035    0.1444443933E+02
        8       10        3     -2.9596     -2.6128       16.9211942338    0.6132889505E-05
        8       10        4     -2.9596     -2.6128       37.4211938218    0.2035091968E+02
        8       10        5     -2.9596     -2.6128       37.9590532948    0.1385070502E+02
        8       10        6     -2.9596     -2.6128       49.9339552096    0.8851032235E-05
        8       10        7     -2.9596     -2.6128       54.2949499009    0.5305046227E-05
        8       10        8     -2.9596     -2.6128       56.0923889541    0.7731008289E-05
        8       10        9     -2.9596     -2.6128       61.0977134042    0.5546274365E+02
        9        1        1     -2.9596     -6.2619        8.1220855271    0.2204859368E+02
        9        1        2     -2.9596     -6.2619       12.8050603035    0.1045472492E-04
        9        1        3     -2.9596     -6.2619       16.9211942338    0.2520044024E+02
        9        1        4     -2.9596     -6.2619       37.4211938218    0.4918128211E-05
        9        1        5     -2.9596     -6.2619       37.9590532948    0.6944055664E-05
        9        1        6     -2.9596     -6.2619       49.9339552096    0.2450226453E+01
        9        1        7     -2.9596     -6.2619       54.2949499009    0.1695390111E+02
        9        1        8     -2.9596     -6.2619       56.0923889541    0.2765984061E+02
        9        1        9     -2.9596     -6.2619       61.0977134042    0.3007394259E-05
        9        2        1     -2.9596     -6.2619        8.1220855271    0.2204859368E+02
        9        2        2     -2.9596     -6.2619       12.8050603035    0.1045472492E-04
        9        2        3     -2.9596     -6.2619       16.9211942338    0.2520044024E+02
        9        2        4     -2.9596     -6.2619       37.4211938218    0.4918128211E-05
        9        2        5     -2.9596     -6.2619       37.9590532948    0.6944055664E-05
        9        2        6     -2.9596     -6.2619       49.9339552096    0.2450226453E+01
        9        2        7     -2.9596     -6.2619       54.2949499009    0.1695390111E+02
        9        2        8     -2.9596     -6.2619       56.0923889541    0.2765984061E+02
        9        2        9     -2.9596     -6.2619       61.0977134042    0.3007394259E-05
        9        3        1     -2.9596     -3.6686        8.1220855271    0.1112320077E+02
        9        3        2     -2.9596     -3.6686       12.8050603035    0.1086772593E-04
        9        3        3     -2.9596     -3.6686       16.9211942338    0.1225009574E+02
        9        3        4     -2.9596     -3.6686       37.4211938218    0.8419881247E-05
        9        3        5     -2.9596     -3.6686       37.9590532948    0.1381370723E-04
        9        3        6     -2.9596     -3.6686       49.9339552096    0.4084822966E+01
        9        3        7     -2.9596     -3.6686       54.2949499009    0.4035202464E+02
        9        3        8     -2.9596     -3.6686       56.0923889541    0.2104551216E+02
        9        3        9     -2.9596     -3.6686       61.0977134042    0.3181820268E-05
        9        4        1     -2.9596     -3.6686        8.1220855271    0.1112320077E+02
        9        4        2     -2.9596     -3.6686       12.8050603035    0.1086772593E-04
        9        4        3     -2.9596     -3.6686       16.9211942338    0.1225009574E+02
        9        4        4     -2.9596     -3.6686       37.4211938218    0.8419881247E-05
        9        4        5     -2.9596     -3.6686       37.9590532948    0.1381370723E-04
        9        4        6     -2.9596     -3.6686       49.9339552096    0.4084822966E+01
        9        4        7     -2.9596     -3.6686       54.2949499009    0.4035202464E+02
        9        4        8     -2.9596     -3.6686       56.0923889541    0.2104551216E+02
        9        4        9     -2.9596     -3.6686       61.0977134042    0.3181820268E-05
        9        5        1     -2.9596     -3.3370        8.1220855271    0.1358900401E+02
        9        5        2     -2.9596     -3.3370       12.8050603035    0.8633725511E-05
        9        5        3     -2.9596     -3.3370       16.9211942338    0.8981443566E+01
        9        5        4     -2.9596     -3.3370       37.4211938218    0.8953891177E-05
        9        5        5     -2.9596     -3.3370       37.9590532948    0.1365954261E-04
        9        5        6     -2.9596     -3.3370       49.9339552096    0.2879795112E+02
        9        5        7     -2.9596     -3.3370       54.2949499009    0.1803240708E+02
        9        5        8     -2.9596     -3.3370       56.0923889541    0.2679085997E+02
        9        5        9     -2.9596     -3.3370       61.0977134042    0.2932215718E-05
        9        6        1     -2.9596     -3.3370        8.1220855271    0.1358900401E+02
        9        6        2     -2.9596     -3.3370       12.8050603035    0.8633725511E-05
        9        6        3     -2.9596     -3.3370       16.9211942338    0.8981443566E+01
        9        6        4     -2.9596     -3.3370       37.4211938218    0.8953891177E-05
        9        6        5     -2.9596     -3.3370       37.9590532948    0.1365954261E-04
        9        6        6     -2.9596     -3.3370       49.9339552096    0.2879795112E+02
        9        6        7     -2.9596     -3.3370       54.2949499009    0.1803240708E+02
        9        6        8     -2.9596     -3.3370       56.0923889541    0.2679085997E+02
        9        6        9     -2.9596     -3.3370       61.0977134042    0.2932215718E-05
        9        7        1     -2.9596     -3.2054        8.1220855271    0.2324859601E-04
        9        7        2     -2.9596     -3.2054       12.8050603035    0.3299325815E+02
        9        7        3     -2.9596     -3.2054       16.9211942338    0.7523374425E-05
        9        7        4     -2.9596     -3.2054       37.4211938218    0.4147064198E+02
        9        7        5     -2.9596     -3.2054       37.9590532948    0.1922276269E+02
        9        7        6     -2.9596     -3.2054       49.9339552096    0.4519863250E-05
        9        7        7     -2.9596     -3.2054       54.2949499009    0.1081266040E-04
        9        7        8     -2.9596     -3.2054       56.0923889541    0.1217086811E-04
        9        7        9     -2.9596     -3.2054       61.0977134042    0.3792656785E+02
        9        8        1     -2.9596     -3.2054        8.1220855271    0.2324859601E-04
        9        8        2     -2.9596     -3.2054       12.8050603035    0.3299325815E+02
        9        8        3     -2.9596     -3.2054       16.9211942338    0.7523374425E-05
        9        8        4     -2.9596     -3.2054       37.4211938218    0.4147064198E+02
        9        8        5     -2.9596     -3.2054       37.9590532948    0.1922276269E+02
        9        8        6     -2.9596     -3.2054       49.9339552096    0.4519863250E-05
        9        8        7     -2.9596     -3.2054       54.2949499009    0.1081266040E-04
        9        8        8     -2.9596     -3.2054       56.0923889541    0.1217086811E-04
        9        8        9     -2.9596     -3.2054       61.0977134042    0.3792656785E+02
        9        9        1     -2.9596     -2.6128        8.1220855271    0.1706717649E-04
        9        9        2     -2.9596     -2.6128       12.8050603035    0.1444443933E+02
        9        9        3     -2.9596     -2.6128       16.9211942338    0.6132889505E-05
        9        9        4     -2.9596     -2.6128       37.4211938218    0.2035091968E+02
        9        9        5     -2.9596     -2.6128       37.9590532948    0.1385070502E+02
        9        9        6     -2.9596     -2.6128       49.9339552096    0.8851032235E-05
        9        9        7     -2.9596     -2.6128       54.2949499009    0.5305046227E-05
        9        9        8     -2.9596     -2.6128       56.0923889541    0.7731008289E-05
        9        9        9     -2.9596     -2.6128       61.0977134042    0.5546274365E+02
        9       10        1     -2.9596     -2.6128        8.1220855271    0.1706717649E-04
        9       10        2     -2.9596     -2.6128       12.8050603035    0.1444443933E+02
        9       10        3     -2.9596     -2.6128       16.9211942338    0.6132889505E-05
        9       10        4     -2.9596     -2.6128       37.4211938218    0.2035091968E+02
        9       10        5     -2.9596     -2.6128       37.9590532948    0.1385070502E+02
        9       10        6     -2.9596     -2.6128       49.9339552096    0.8851032235E-05
        9       10        7     -2.9596     -2.6128       54.2949499009    0.5305046227E-05
        9       10        8     -2.9596     -2.6128       56.0923889541    0.7731008289E-05
        9       10        9     -2.9596     -2.6128       61.0977134042    0.5546274365E+02
       10        1        1     -2.9596     -6.2619        8.1220855271    0.2204859368E+02
       10        1        2     -2.9596     -6.2619       12.8050603035    0.1045472492E-04
       10        1        3     -2.9596     -6.2619       16.9211942338    0.2520044024E+02
       10        1        4     -2.9596     -6.2619       37.4211938218    0.4918128211E-05
       10        1        5     -2.9596     -6.2619       37.9590532948    0.6944055664E-05
       10        1        6     -2.9596     -6.2619       49.9339552096    0.2450226453E+01
       10        1        7     -2.9596     -6.2619       54.2949499009    0.1695390111E+02
       10        1        8     -2.9596     -6.2619       56.0923889541    0.2765984061E+02
       10        1        9     -2.9596     -6.2619       61.0977134042    0.3007394259E-05
       10        2        1     -2.9596     -6.2619        8.1220855271    0.2204859368E+02
       10        2        2     -2.9596     -6.2619       12.8050603035    0.1045472492E-04
       10        2        3     -2.9596     -6.2619       16.9211942338    0.2520044024E+02
       10        2        4     -2.9596     -6.2619       37.4211938218    0.4918128211E-05
       10        2        5     -2.9596     -6.2619       37.9590532948    0.6944055664E-05
       10        2        6     -2.9596     -6.2619       49.9339552096    0.2450226453E+01
       10        2        7     -2.9596     -6.2619       54.2949499009    0.1695390111E+02
       10        2        8     -2.9596     -6.2619       56.0923889541    0.2765984061E+02
       10        2        9     -2.9596     -6.2619       61.0977134042    0.3007394259E-05
       10        3        1     -2.9596     -3.6686        8.1220855271    0.1112320077E+02
       10        3        2     -2.9596     -3.6686       12.8050603035    0.1086772593E-04
       10        3        3     -2.9596     -3.6686       16.9211942338    0.1225009574E+02
       10        3        4     -2.9596     -3.6686       37.4211938218    0.8419881247E-05
       10        3        5     -2.9596     -3.6686       37.9590532948    0.1381370723E-04
       10        3        6     -2.9596     -3.6686       49.9339552096    0.4084822966E+01
       10        3        7     -2.9596     -3.6686       54.2949499009    0.4035202464E+02
       10        3        8     -2.9596     -3.6686       56.0923889541    0.2104551216E+02
       10        3        9     -2.9596     -3.6686       61.0977134042    0.3181820268E-05
       10        4        1     -2.9596     -3.6686        8.1220855271    0.1112320077E+02
       10        4        2     -2.9596     -3.6686       12.8050603035    0.1086772593E-04
       10        4        3     -2.9596     -3.6686       16.9211942338    0.1225009574E+02
       10        4        4     -2.9596     -3.6686       37.4211938218    0.8419881247E-05
       10        4        5     -2.9596     -3.6686       37.9590532948    0.1381370723E-04
       10        4        6     -2.9596     -3.6686       49.9339552096    0.4084822966E+01
       10        4        7     -2.9596     -3.6686       54.2949499009    0.4035202464E+02
       10        4        8     -2.9596     -3.6686       56.0923889541    0.2104551216E+02
       10        4        9     -2.9596     -3.6686       61.0977134042    0.3181820268E-05
       10        5        1     -2.9596     -3.3370        8.1220855271    0.1358900401E+02
       10        5        2     -2.9596     -3.3370       12.8050603035    0.8633725511E-05
       10        5        3     -2.9596     -3.3370       16.9211942338    0.8981443566E+01
       10        5        4     -2.9596     -3.3370       37.4211938218    0.8953891177E-05
       10        5        5     -2.9596     -3.3370       37.9590532948    0.1365954261E-04
       10        5        6     -2.9596     -3.3370       49.9339552096    0.2879795112E+02
       10        5        7     -2.9596     -3.3370       54.2949499009    0.1803240708E+02
       10        5        8     -2.9596     -3.3370       56.0923889541    0.2679085997E+02
       10        5        9     -2.9596     -3.3370       61.0977134042    0.2932215718E-05
       10        6        1     -2.9596     -3.3370        8.1220855271    0.1358900401E+02
       10        6        2     -2.9596     -3.3370       12.8050603035    0.8633725511E-05
       10        6        3     -2.9596     -3.3370       16.9211942338    0.8981443566E+01
       10        6        4     -2.9596     -3.3370       37.4211938218    0.8953891177E-05
       10        6        5     -2.9596     -3.3370       37.9590532948    0.1365954261E-04
       10        6        6     -2.9596     -3.3370       49.9339552096    0.2879795112E+02
       10        6        7     -2.9596     -3.3370       54.2949499009    0.1803240708E+02
       10        6        8     -2.9596     -3.3370       56.0923889541    0.2679085997E+02
       10        6        9     -2.9596     -3.3370       61.0977134042    0.2932215718E-05
       10        7        1     -2.9596     -3.2054        8.1220855271    0.2324859601E-04
       10        7        2     -2.9596     -3.2054       12.8050603035    0.3299325815E+02
       10        7        3     -2.9596     -3.2054       16.9211942338    0.7523374425E-05
       10        7        4     -2.9596     -3.2054       37.4211938218    0.4147064198E+02
       10        7        5     -2.9596     -3.2054       37.9590532948    0.1922276269E+02
       10        7        6     -2.9596     -3.2054       49.9339552096    0.4519863250E-05
       10        7        7     -2.9596     -3.2054       54.2949499009    0.1081266040E-04
       10        7        8     -2.9596     -3.2054       56.0923889541    0.1217086811E-04
       10        7        9     -2.9596     -3.2054       61.0977134042    0.3792656785E+02
       10        8        1     -2.9596     -3.2054        8.1220855271    0.2324859601E-04
       10        8        2     -2.9596     -3.2054       12.8050603035    0.3299325815E+02
       10        8        3     -2.9596     -3.2054       16.9211942338    0.7523374425E-05
       10        8        4     -2.9596     -3.2054       37.4211938218    0.4147064198E+02
       10        8        5     -2.9596     -3.2054       37.9590532948    0.1922276269E+02
       10        8        6     -2.9596     -3.2054       49.9339552096    0.4519863250E-05
       10        8        7     -2.9596     -3.2054       54.2949499009    0.1081266040E-04
       10        8        8     -2.9596     -3.2054       56.0923889541    0.1217086811E-04
       10        8        9     -2.9596     -3.2054       61.0977134042    0.3792656785E+02
       10        9        1     -2.9596     -2.6128        8.1220855271    0.1706717649E-04
       10        9        2     -2.9596     -2.6128       12.8050603035    0.1444443933E+02
       10        9        3     -2.9596     -2.6128       16.9211942338    0.6132889505E-05
       10        9        4     -2.9596     -2.6128       37.4211938218    0.2035091968E+02
       10        9        5     -2.9596     -2.6128       37.9590532948    0.1385070502E+02
       10        9        6     -2.9596     -2.6128       49.9339552096    0.8851032235E-05
       10        9        7     -2.9596     -2.6128       54.2949499009    0.5305046227E-05
       10        9        8     -2.9596     -2.6128       56.0923889541    0.7731008289E-05
       10        9        9     -2.9596     -2.6128       61.0977134042    0.5546274365E+02
       10       10        1     -2.9596     -2.6128        8.1220855271    0.1706717649E-04
       10       10        2     -2.9596     -2.6128       12.8050603035    0.1444443933E+02
       10       10        3     -2.9596     -2.6128       16.9211942338    0.6132889505E-05
       10       10        4     -2.9596     -2.6128       37.4211938218    0.2035091968E+02
       10       10        5     -2.9596     -2.6128       37.9590532948    0.1385070502E+02
       10       10        6     -2.9596     -2.6128       49.9339552096    0.8851032235E-05
       10       10        7     -2.9596     -2.6128       54.2949499009    0.5305046227E-05
       10       10        8     -2.9596     -2.6128       56.0923889541    0.7731008289E-05
       10       10        9     -2.9596     -2.6128       61.0977134042    0.5546274365E+02
     ------------------------------------------------------------------------------

     ===================================================================
     Memory usage:  VmHWM =        71Mb
                   VmPeak =       406Mb
     ===================================================================


     Unfolding on the coarse grid
     elphon_wrap  :     28.98s CPU     29.58s WALL (       1 calls)

     INITIALIZATION: 

     set_drhoc    :      1.00s CPU      1.00s WALL (       5 calls)
     init_vloc    :      0.01s CPU      0.01s WALL (       1 calls)
     init_us_1    :      0.02s CPU      0.02s WALL (       2 calls)



     Electron-Phonon interpolation
     ephwann      :      0.32s CPU      0.37s WALL (       1 calls)
     ep-interp    :      0.04s CPU      0.08s WALL (       6 calls)

     Ham: step 1  :      0.00s CPU      0.00s WALL (       1 calls)
     Ham: step 2  :      0.00s CPU      0.00s WALL (       1 calls)
     ep: step 1   :      0.00s CPU      0.00s WALL (       4 calls)
     ep: step 2   :      0.13s CPU      0.18s WALL (       1 calls)
     DynW2B       :      0.00s CPU      0.00s WALL (       6 calls)
     HamW2B       :      0.00s CPU      0.00s WALL (      21 calls)
     ephW2Bp      :      0.00s CPU      0.00s WALL (       6 calls)
     ephW2B       :      0.01s CPU      0.01s WALL (       6 calls)
     vmewan2bloch :      0.00s CPU      0.00s WALL (      12 calls)
     vmewan2bloch :      0.00s CPU      0.00s WALL (      12 calls)


     Total program execution
     EPW          :     38.55s CPU     39.28s WALL

     ===============================================================================
     The functionality-dependent EPW.bib file was created with suggested citations. 
     Please consider citing the papers listed in EPW.bib.                           
     ===============================================================================
                                                                                    
