
     Program PWSCF v.6.4.1 starts on 28May2019 at 10:55:42 

     This program is part of the open-source Quantum ESPRESSO suite
     for quantum simulation of materials; please cite
         "P. Giannozzi et al., J. Phys.:Condens. Matter 21 395502 (2009);
         "P. Giannozzi et al., J. Phys.:Condens. Matter 29 465901 (2017);
          URL http://www.quantum-espresso.org", 
     in publications or presentations arising from this work. More details at
     http://www.quantum-espresso.org/quote

     Parallel version (MPI), running on     8 processors

     MPI processes distributed on     1 nodes
     R & G space division:  proc/nbgrp/npool/nimage =       8
     Waiting for input...
     Reading input from standard input

     Current dimensions of program PWSCF are:
     Max number of different atomic species (ntypx) = 10
     Max number of k-points (npk) =  40000
     Max angular momentum in pseudopotentials (lmaxx) =  3
               file Bi.rel-pz-dn-rrkjus_psl.1.0.0.UPF: wavefunction(s)  5D 5D renormalized

     Subspace diagonalization in iterative solution of the eigenvalue problem:
     a serial algorithm will be used

 
     Parallelization info
     --------------------
     sticks:   dense  smooth     PW     G-vecs:    dense   smooth      PW
     Min         106      53     15                 2016      718     119
     Max         107      54     16                 2017      719     122
     Sum         851     431    127                16133     5751     965
 


     bravais-lattice index     =            5
     lattice parameter (alat)  =       8.8800  a.u.
     unit-cell volume          =     472.3570 (a.u.)^3
     number of atoms/cell      =            2
     number of atomic types    =            1
     number of electrons       =        30.00
     number of Kohn-Sham states=           38
     kinetic-energy cutoff     =      20.0000  Ry
     charge density cutoff     =     160.0000  Ry
     convergence threshold     =      1.0E-10
     mixing beta               =       0.7000
     number of iterations used =            8  plain     mixing
     Exchange-correlation      = LDA ( 1  1  0  0 0 0)
     Non magnetic calculation with spin-orbit


     celldm(1)=   8.880000  celldm(2)=   0.000000  celldm(3)=   0.000000
     celldm(4)=   0.530000  celldm(5)=   0.000000  celldm(6)=   0.000000

     crystal axes: (cart. coord. in units of alat)
               a(1) = (   0.484768  -0.279881   0.828654 )  
               a(2) = (   0.000000   0.559762   0.828654 )  
               a(3) = (  -0.484768  -0.279881   0.828654 )  

     reciprocal axes: (cart. coord. in units 2 pi/alat)
               b(1) = (  1.031421 -0.595491  0.402259 )  
               b(2) = (  0.000000  1.190983  0.402259 )  
               b(3) = ( -1.031421 -0.595491  0.402259 )  


     PseudoPot. # 1 for Bi read from file:
     /scratch/timrov/QE_GitLab_Timrov/q-e/pseudo/Bi.rel-pz-dn-rrkjus_psl.1.0.0.UPF
     MD5 check sum: 647e51ba2e523f58121758105f942527
     Pseudo is Ultrasoft + core correction, Zval = 15.0
     Generated using "atomic" code by A. Dal Corso v.6.2.2
     Using radial grid of 1283 points, 10 beta functions with: 
                l(1) =   0
                l(2) =   0
                l(3) =   1
                l(4) =   1
                l(5) =   1
                l(6) =   1
                l(7) =   2
                l(8) =   2
                l(9) =   2
               l(10) =   2
     Q(r) pseudized with 0 coefficients 


     atomic species   valence    mass     pseudopotential
        Bi            15.00   208.98038     Bi( 1.00)

      2 Sym. Ops., with inversion, found



   Cartesian axes

     site n.     atom                  positions (alat units)
         1           Bi  tau(   1) = (   0.2355889   0.2355889   0.2355889  )
         2           Bi  tau(   2) = (  -0.2355889  -0.2355889  -0.2355889  )

     number of k points=     8  Marzari-Vanderbilt smearing, width (Ry)=  0.0200
                       cart. coord. in units 2pi/alat
        k(    1) = (   0.0000000   0.0000000   0.0000000), wk =   0.1250000
        k(    2) = (   0.5157106   0.2977457  -0.2011295), wk =   0.1250000
        k(    3) = (   0.5157106  -0.2977457  -0.4022590), wk =   0.1250000
        k(    4) = (   0.0000000   0.0000000  -0.6033885), wk =   0.1250000
        k(    5) = (  -0.5157106   0.2977457  -0.2011295), wk =   0.1250000
        k(    6) = (   0.0000000  -0.5954913  -0.2011295), wk =   0.1250000
        k(    7) = (   0.0000000   0.5954913  -0.4022590), wk =   0.1250000
        k(    8) = (  -0.5157106  -0.2977457  -0.4022590), wk =   0.1250000

     Dense  grid:    16133 G-vectors     FFT dimensions: (  36,  36,  36)

     Smooth grid:     5751 G-vectors     FFT dimensions: (  25,  25,  25)

     Estimated max dynamical RAM per process >      27.48 MB

     Estimated total dynamical RAM >     219.81 MB

     Check: negative core charge=   -0.000001

     Initial potential from superposition of free atoms

     starting charge   29.99866, renormalised to   30.00000
     Starting wfcs are   36 randomized atomic wfcs +    2 random wfcs

     total cpu time spent up to now is        1.3 secs

     Self-consistent Calculation

     iteration #  1     ecut=    20.00 Ry     beta= 0.70
     Davidson diagonalization with overlap
     ethr =  1.00E-02,  avg # of iterations =  4.0

     total cpu time spent up to now is        1.7 secs

     total energy              =    -295.44200075 Ry
     Harris-Foulkes estimate   =    -297.29705066 Ry
     estimated scf accuracy    <       2.43257564 Ry

     iteration #  2     ecut=    20.00 Ry     beta= 0.70
     Davidson diagonalization with overlap
     ethr =  8.11E-03,  avg # of iterations =  2.0

     total cpu time spent up to now is        2.0 secs

     total energy              =    -295.95320719 Ry
     Harris-Foulkes estimate   =    -296.05761675 Ry
     estimated scf accuracy    <       0.16515870 Ry

     iteration #  3     ecut=    20.00 Ry     beta= 0.70
     Davidson diagonalization with overlap
     ethr =  5.51E-04,  avg # of iterations =  2.0

     total cpu time spent up to now is        2.3 secs

     total energy              =    -295.97913192 Ry
     Harris-Foulkes estimate   =    -295.98246063 Ry
     estimated scf accuracy    <       0.00701031 Ry

     iteration #  4     ecut=    20.00 Ry     beta= 0.70
     Davidson diagonalization with overlap
     ethr =  2.34E-05,  avg # of iterations =  3.2

     total cpu time spent up to now is        2.6 secs

     total energy              =    -295.97978776 Ry
     Harris-Foulkes estimate   =    -295.97998487 Ry
     estimated scf accuracy    <       0.00036104 Ry

     iteration #  5     ecut=    20.00 Ry     beta= 0.70
     Davidson diagonalization with overlap
     ethr =  1.20E-06,  avg # of iterations =  2.9

     total cpu time spent up to now is        2.9 secs

     total energy              =    -295.97986619 Ry
     Harris-Foulkes estimate   =    -295.97987172 Ry
     estimated scf accuracy    <       0.00001770 Ry

     iteration #  6     ecut=    20.00 Ry     beta= 0.70
     Davidson diagonalization with overlap
     ethr =  5.90E-08,  avg # of iterations =  2.0

     total cpu time spent up to now is        3.2 secs

     total energy              =    -295.97986852 Ry
     Harris-Foulkes estimate   =    -295.97986882 Ry
     estimated scf accuracy    <       0.00000054 Ry

     iteration #  7     ecut=    20.00 Ry     beta= 0.70
     Davidson diagonalization with overlap
     ethr =  1.80E-09,  avg # of iterations =  2.0

     total cpu time spent up to now is        3.5 secs

     total energy              =    -295.97986867 Ry
     Harris-Foulkes estimate   =    -295.97986869 Ry
     estimated scf accuracy    <       0.00000005 Ry

     iteration #  8     ecut=    20.00 Ry     beta= 0.70
     Davidson diagonalization with overlap
     ethr =  1.54E-10,  avg # of iterations =  2.0

     total cpu time spent up to now is        3.8 secs

     total energy              =    -295.97986868 Ry
     Harris-Foulkes estimate   =    -295.97986868 Ry
     estimated scf accuracy    <          1.8E-09 Ry

     iteration #  9     ecut=    20.00 Ry     beta= 0.70
     Davidson diagonalization with overlap
     ethr =  6.06E-12,  avg # of iterations =  2.0

     total cpu time spent up to now is        4.2 secs

     End of self-consistent calculation

          k = 0.0000 0.0000 0.0000 (   713 PWs)   bands (ev):

   -10.9959 -10.9959  -9.9246  -9.9246  -9.9209  -9.9209  -9.3283  -9.3283
    -8.8044  -8.8044  -8.0384  -8.0384  -7.9529  -7.9529  -7.3291  -7.3291
    -7.2886  -7.2886  -6.8733  -6.8733  -4.8031  -4.8031   1.0057   1.0057
     6.0359   6.0359   8.0000   8.0000   9.3094   9.3094   9.6673   9.6673
    11.9135  11.9135  12.9577  12.9577  14.7019  14.7019

          k = 0.5157 0.2977-0.2011 (   724 PWs)   bands (ev):

   -10.8715 -10.8715 -10.5218 -10.5218 -10.4586 -10.4586 -10.1760 -10.1760
    -8.6731  -8.6731  -8.4339  -8.4339  -8.4224  -8.4224  -8.0287  -8.0287
    -7.8776  -7.8776  -7.6824  -7.6824  -3.0272  -3.0272  -1.9872  -1.9872
     6.2304   6.2304   7.1136   7.1136   8.7547   8.7547   9.0081   9.0081
    12.0897  12.0897  12.2552  12.2552  16.6493  16.6493

          k = 0.5157-0.2977-0.4023 (   716 PWs)   bands (ev):

   -10.6043 -10.6043 -10.4877 -10.4877 -10.0033 -10.0033  -9.9312  -9.9312
    -8.4462  -8.4462  -8.3418  -8.3418  -7.8567  -7.8567  -7.7232  -7.7232
    -7.6282  -7.6282  -7.5411  -7.5411  -2.9578  -2.9578  -1.4898  -1.4898
     5.0152   5.0152   5.2261   5.2261   7.4948   7.4948  10.4388  10.4388
    14.4325  14.4325  15.3745  15.3745  16.3629  16.3629

          k = 0.0000 0.0000-0.6034 (   718 PWs)   bands (ev):

   -10.4136 -10.4136 -10.3201 -10.3201 -10.2156 -10.2156 -10.0317 -10.0317
    -8.4130  -8.4130  -8.3046  -8.3046  -7.9460  -7.9460  -7.7622  -7.7622
    -7.5255  -7.5255  -7.5141  -7.5141  -3.1400  -3.1400  -2.0710  -2.0710
     6.4781   6.4781   7.3125   7.3125   9.1272   9.1272   9.2143   9.2143
    12.2490  12.2490  12.3995  12.3995  16.5934  16.5934

          k =-0.5157 0.2977-0.2011 (   724 PWs)   bands (ev):

   -10.7677 -10.7677 -10.7289 -10.7289 -10.3167 -10.3167 -10.2723 -10.2723
    -8.6274  -8.6274  -8.5802  -8.5802  -8.2478  -8.2478  -8.0861  -8.0861
    -7.8040  -7.8040  -7.7140  -7.7140  -3.2915  -3.2915  -1.5945  -1.5945
     6.0923   6.0923   7.0630   7.0630   8.6548   8.6548   9.1702   9.1702
    11.8731  11.8731  12.3492  12.3492  16.4508  16.4508

          k = 0.0000-0.5955-0.2011 (   724 PWs)   bands (ev):

   -10.7551 -10.7551 -10.6574 -10.6574 -10.5279 -10.5279 -10.1863 -10.1863
    -8.6801  -8.6801  -8.4720  -8.4720  -8.3337  -8.3337  -7.9462  -7.9462
    -7.9323  -7.9323  -7.6108  -7.6108  -4.1367  -4.1367   0.0283   0.0283
     6.1791   6.1791   6.2767   6.2767   8.1252   8.1252   9.9538   9.9538
    11.0107  11.0107  11.1314  11.1314  15.8861  15.8861

          k = 0.0000 0.5955-0.4023 (   716 PWs)   bands (ev):

   -11.0168 -11.0168 -10.1525 -10.1525 -10.1138 -10.1138  -9.6824  -9.6824
    -8.6627  -8.6627  -8.1559  -8.1559  -8.0811  -8.0811  -7.7518  -7.7518
    -7.6386  -7.6386  -7.2920  -7.2920  -2.9795  -2.9795  -1.5060  -1.5060
     5.0690   5.0690   5.4469   5.4469   7.2764   7.2764  10.4984  10.4984
    14.2023  14.2023  15.2254  15.2254  16.1705  16.1705

          k =-0.5157-0.2977-0.4023 (   716 PWs)   bands (ev):

   -10.8723 -10.8723 -10.2828 -10.2828 -10.2405 -10.2405  -9.6647  -9.6647
    -8.5995  -8.5995  -8.1478  -8.1478  -8.0807  -8.0807  -7.7626  -7.7626
    -7.6095  -7.6095  -7.3098  -7.3098  -3.1822  -3.1822  -1.1129  -1.1129
     4.8582   4.8582   5.1283   5.1283   7.6587   7.6587  10.2271  10.2271
    14.6813  14.6813  15.1822  15.1822  16.5699  16.5699

     the Fermi energy is     9.1404 ev

!    total energy              =    -295.97986868 Ry
     Harris-Foulkes estimate   =    -295.97986868 Ry
     estimated scf accuracy    <          2.8E-11 Ry

     The total energy is the sum of the following terms:

     one-electron contribution =    -101.23533940 Ry
     hartree contribution      =      68.62377907 Ry
     xc contribution           =     -61.78800184 Ry
     ewald contribution        =    -201.57852062 Ry
     smearing contrib. (-TS)   =      -0.00178588 Ry

     convergence has been achieved in   9 iterations

     Writing output data file Bi.save/
 
     init_run     :      0.22s CPU      0.26s WALL (       1 calls)
     electrons    :      2.83s CPU      2.90s WALL (       1 calls)

     Called by init_run:
     wfcinit      :      0.05s CPU      0.09s WALL (       1 calls)
     potinit      :      0.01s CPU      0.01s WALL (       1 calls)
     hinit0       :      0.10s CPU      0.11s WALL (       1 calls)

     Called by electrons:
     c_bands      :      1.85s CPU      1.91s WALL (       9 calls)
     sum_band     :      0.58s CPU      0.60s WALL (       9 calls)
     v_of_rho     :      0.00s CPU      0.00s WALL (      10 calls)
     newd         :      0.41s CPU      0.41s WALL (      10 calls)
     mix_rho      :      0.01s CPU      0.01s WALL (       9 calls)

     Called by c_bands:
     init_us_2    :      0.02s CPU      0.01s WALL (     152 calls)
     cegterg      :      1.73s CPU      1.78s WALL (      72 calls)

     Called by sum_band:
     sum_band:bec :      0.11s CPU      0.13s WALL (      72 calls)
     addusdens    :      0.24s CPU      0.24s WALL (       9 calls)

     Called by *egterg:
     h_psi        :      1.07s CPU      1.10s WALL (     257 calls)
     s_psi        :      0.07s CPU      0.09s WALL (     257 calls)
     g_psi        :      0.00s CPU      0.01s WALL (     177 calls)
     cdiaghg      :      0.51s CPU      0.53s WALL (     249 calls)

     Called by h_psi:
     h_psi:pot    :      1.06s CPU      1.10s WALL (     257 calls)
     h_psi:calbec :      0.04s CPU      0.03s WALL (     257 calls)
     vloc_psi     :      0.94s CPU      0.97s WALL (     257 calls)
     add_vuspsi   :      0.08s CPU      0.10s WALL (     257 calls)

     General routines
     calbec       :      0.06s CPU      0.04s WALL (     329 calls)
     fft          :      0.01s CPU      0.02s WALL (     139 calls)
     ffts         :      0.00s CPU      0.00s WALL (      76 calls)
     fftw         :      0.96s CPU      0.97s WALL (   35816 calls)
     interpolate  :      0.00s CPU      0.01s WALL (      40 calls)
 
     Parallel routines
     fft_scatt_xy :      0.16s CPU      0.14s WALL (   36031 calls)
     fft_scatt_yz :      0.33s CPU      0.36s WALL (   36031 calls)
 
     PWSCF        :      4.02s CPU      4.19s WALL

 
   This run was terminated on:  10:55:46  28May2019            

=------------------------------------------------------------------------------=
   JOB DONE.
=------------------------------------------------------------------------------=
