
     Program PWSCF v.5.1.1 (svn rev. 11314) starts on 27Jan2015 at 11:16:57 

     This program is part of the open-source Quantum ESPRESSO suite
     for quantum simulation of materials; please cite
         "P. Giannozzi et al., J. Phys.:Condens. Matter 21 395502 (2009);
          URL http://www.quantum-espresso.org", 
     in publications or presentations arising from this work. More details at
     http://www.quantum-espresso.org/quote

     Parallel version (MPI), running on     1 processors
     Waiting for input...
     Reading input from standard input

     Current dimensions of program PWSCF are:
     Max number of different atomic species (ntypx) = 10
     Max number of k-points (npk) =  40000
     Max angular momentum in pseudopotentials (lmaxx) =  3

    ============================================================
    |  pseudopotential report for atomic species:  1           |
    |        pseudo potential version   7   3   2              |
    ------------------------------------------------------------
    |  hydrogen            PBE                  exchange-corr  |
    |  z =   1.    zv( 1) =   1.    exfact =   5.00000         |
    |  ifpcor =  0           atomic energy =  -0.91772 Ry      |
    |  index    orbital      occupation    energy              |
    |    1        100           1.00       -0.48               |
    |  rinner =  0.5000                                        |
    |    new generation scheme:                                |
    |    nbeta =  1     kkbeta =  271     rcloc =    0.6000    |
    |    ibeta    l     epsilon   rcut                         |
    |      1       0      -0.48   0.80                         |
    ============================================================

     gamma-point specific algorithms are used

     Subspace diagonalization in iterative solution of the eigenvalue problem:
     a serial algorithm will be used

 
     G-vector sticks info
     --------------------
     sticks:   dense  smooth     PW     G-vecs:    dense   smooth      PW
     Sum        1725    1725    429               107209   107209   13363
     Tot         863     863    215
 


     bravais-lattice index     =            6
     lattice parameter (alat)  =      15.0000  a.u.
     unit-cell volume          =    6750.0000 (a.u.)^3
     number of atoms/cell      =            2
     number of atomic types    =            1
     number of electrons       =         2.00
     number of Kohn-Sham states=            8
     kinetic-energy cutoff     =      24.0000  Ry
     charge density cutoff     =      96.0000  Ry
     convergence threshold     =      1.0E-06
     mixing beta               =       0.7000
     number of iterations used =            8  plain     mixing
     Exchange-correlation      = PBE ( 1  4  3  4 0 0)

     celldm(1)=  15.000000  celldm(2)=   0.000000  celldm(3)=   2.000000
     celldm(4)=   0.000000  celldm(5)=   0.000000  celldm(6)=   0.000000

     crystal axes: (cart. coord. in units of alat)
               a(1) = (   1.000000   0.000000   0.000000 )  
               a(2) = (   0.000000   1.000000   0.000000 )  
               a(3) = (   0.000000   0.000000   2.000000 )  

     reciprocal axes: (cart. coord. in units 2 pi/alat)
               b(1) = (  1.000000  0.000000  0.000000 )  
               b(2) = (  0.000000  1.000000  0.000000 )  
               b(3) = (  0.000000  0.000000  0.500000 )  


     PseudoPot. # 1 for hy read from file:
     /home/guido/InCorso.d/2015.d/MOPDOS.d/2015.01.19_espresso_svn11314.d/pseudo/H_US.van
     MD5 check sum: a9a9bfe98ff56cf4de197d71fc46bb44
     Pseudo is Ultrasoft, Zval =  1.0
     Generated by Vanderbilt code, v. 7.3.2
     Using radial grid of  399 points,  1 beta functions with: 
                l(1) =   0
     Q(r) pseudized with  8 coefficients,  rinner =    0.500

     atomic species   valence    mass     pseudopotential
        H              1.00     1.00000     hy( 1.00)

      8 Sym. Ops., with inversion, found



   Cartesian axes

     site n.     atom                  positions (alat units)
         1           H   tau(   1) = (   0.0000000  -0.0666667   1.0000000  )
         2           H   tau(   2) = (   0.0000000   0.0666667   1.0000000  )

     number of k points=     1
                       cart. coord. in units 2pi/alat
        k(    1) = (   0.0000000   0.0000000   0.0000000), wk =   2.0000000

     Dense  grid:    53605 G-vectors     FFT dimensions: (  48,  48,  96)

     Largest allocated arrays     est. size (Mb)     dimensions
        Kohn-Sham Wavefunctions         0.82 Mb     (    6682,    8)
        NL pseudopotentials             0.20 Mb     (    6682,    2)
        Each V/rho on FFT grid          3.38 Mb     (  221184)
        Each G-vector array             0.41 Mb     (   53605)
        G-vector shells                 0.01 Mb     (    1005)
     Largest temporary arrays     est. size (Mb)     dimensions
        Auxiliary wavefunctions         1.63 Mb     (    6682,   32)
        Each subspace H/S matrix        0.01 Mb     (      32,   32)
        Each <psi_i|beta_j> matrix      0.00 Mb     (       2,    8)
        Arrays for rho mixing          27.00 Mb     (  221184,    8)

     Initial potential from superposition of free atoms
     Check: negative starting charge=   -0.014844

     starting charge    1.99998, renormalised to    2.00000

     negative rho (up, down):  1.484E-02 0.000E+00
     Starting wfc are    2 randomized atomic wfcs +    6 random wfc

     total cpu time spent up to now is        0.3 secs

     per-process dynamical memory:    37.1 Mb

     Self-consistent Calculation

     iteration #  1     ecut=    24.00 Ry     beta=0.70
     Davidson diagonalization with overlap
     ethr =  1.00E-02,  avg # of iterations =  7.0

     negative rho (up, down):  1.707E-02 0.000E+00

     total cpu time spent up to now is        0.8 secs

     total energy              =      -2.24642390 Ry
     Harris-Foulkes estimate   =      -2.26674429 Ry
     estimated scf accuracy    <       0.04563718 Ry

     iteration #  2     ecut=    24.00 Ry     beta=0.70
     Davidson diagonalization with overlap
     ethr =  2.28E-03,  avg # of iterations =  1.0

     negative rho (up, down):  1.716E-02 0.000E+00

     total cpu time spent up to now is        1.2 secs

     total energy              =      -2.24912576 Ry
     Harris-Foulkes estimate   =      -2.24939701 Ry
     estimated scf accuracy    <       0.00072301 Ry

     iteration #  3     ecut=    24.00 Ry     beta=0.70
     Davidson diagonalization with overlap
     ethr =  3.62E-05,  avg # of iterations = 14.0

     negative rho (up, down):  1.696E-02 0.000E+00

     total cpu time spent up to now is        1.8 secs

     total energy              =      -2.24920142 Ry
     Harris-Foulkes estimate   =      -2.24920147 Ry
     estimated scf accuracy    <       0.00001027 Ry

     iteration #  4     ecut=    24.00 Ry     beta=0.70
     Davidson diagonalization with overlap
     ethr =  5.14E-07,  avg # of iterations =  7.0

     negative rho (up, down):  1.698E-02 0.000E+00

     total cpu time spent up to now is        2.2 secs

     End of self-consistent calculation

          k = 0.0000 0.0000 0.0000 (  6682 PWs)   bands (ev):

    -9.0626  -0.9256  -0.7321  -0.2669  -0.1142   1.0911   1.2855   1.4875

     highest occupied, lowest unoccupied level (ev):    -9.0626   -0.9256

!    total energy              =      -2.24920169 Ry
     Harris-Foulkes estimate   =      -2.24920176 Ry
     estimated scf accuracy    <       0.00000012 Ry

     The total energy is the sum of the following terms:

     one-electron contribution =      -3.34591000 Ry
     hartree contribution      =       1.78561781 Ry
     xc contribution           =      -1.21281323 Ry
     ewald contribution        =       0.52390373 Ry

     convergence has been achieved in   4 iterations

     Writing output data file H2B.save
 
     init_run     :      0.28s CPU      0.30s WALL (       1 calls)
     electrons    :      1.92s CPU      1.93s WALL (       1 calls)

     Called by init_run:
     wfcinit      :      0.04s CPU      0.04s WALL (       1 calls)
     potinit      :      0.18s CPU      0.19s WALL (       1 calls)

     Called by electrons:
     c_bands      :      0.92s CPU      0.93s WALL (       4 calls)
     sum_band     :      0.22s CPU      0.22s WALL (       4 calls)
     v_of_rho     :      0.81s CPU      0.81s WALL (       5 calls)
     newd         :      0.05s CPU      0.06s WALL (       5 calls)
     mix_rho      :      0.05s CPU      0.05s WALL (       4 calls)

     Called by c_bands:
     init_us_2    :      0.00s CPU      0.00s WALL (       9 calls)
     regterg      :      0.92s CPU      0.93s WALL (       4 calls)

     Called by *egterg:
     h_psi        :      0.87s CPU      0.87s WALL (      34 calls)
     s_psi        :      0.00s CPU      0.00s WALL (      34 calls)
     g_psi        :      0.01s CPU      0.01s WALL (      29 calls)
     rdiaghg      :      0.01s CPU      0.01s WALL (      33 calls)

     Called by h_psi:
     add_vuspsi   :      0.00s CPU      0.00s WALL (      34 calls)

     General routines
     calbec       :      0.01s CPU      0.01s WALL (      38 calls)
     fft          :      0.55s CPU      0.56s WALL (      63 calls)
     fftw         :      0.82s CPU      0.82s WALL (     190 calls)
     davcio       :      0.00s CPU      0.00s WALL (       1 calls)
 
     Parallel routines
     fft_scatter  :      0.18s CPU      0.18s WALL (     253 calls)
 
     PWSCF        :     2.25s CPU         2.29s WALL

 
   This run was terminated on:  11:16:59  27Jan2015            

=------------------------------------------------------------------------------=
   JOB DONE.
=------------------------------------------------------------------------------=
