
     Program PHONON v.4.2CVS    starts on 13Nov2009 at 16:35:38 

     This program is part of the open-source Quantum ESPRESSO suite
     for quantum simulation of materials; please acknowledge
         "P. Giannozzi et al., J. Phys.:Condens. Matter 21 395502 (2009);
          URL http://www.quantum-espresso.org", 
     in publications or presentations arising from this work. More details at
     http://www.quantum-espresso.org/wiki/index.php/Citing_Quantum-ESPRESSO

     Parallel version (MPI), running on     1 processors

     Ultrasoft (Vanderbilt) Pseudopotentials

     Planes per process (thick) : nr3 = 20 npp =  20 ncplane =  400
 
     Proc/  planes cols     G    planes cols    G      columns  G
     Pool       (dense grid)       (smooth grid)      (wavefct grid)
        1    20    241     2445   20    241     2445     85      459
 
        1 /   8 q-points for this run, from  2 to  2:
       N       xq(1)         xq(2)         xq(3) 
       1   0.000000000   0.000000000   0.000000000
       2  -0.250000000   0.250000000  -0.250000000
       3   0.500000000  -0.500000000   0.500000000
       4   0.000000000   0.500000000   0.000000000
       5   0.750000000  -0.250000000   0.750000000
       6   0.500000000   0.000000000   0.500000000
       7   0.000000000  -1.000000000   0.000000000
       8  -0.500000000  -1.000000000   0.000000000
 

     Calculation of q =   -0.2500000   0.2500000  -0.2500000

     RECOVER from restart file failed: file not found

     Planes per process (thick) : nr3 = 20 npp =  20 ncplane =  400
 
     Proc/  planes cols     G    planes cols    G      columns  G
     Pool       (dense grid)       (smooth grid)      (wavefct grid)
        1    20    241     2445   20    241     2445     85      531
 


     bravais-lattice index     =            2
     lattice parameter (a_0)   =      10.5000  a.u.
     unit-cell volume          =     289.4062 (a.u.)^3
     number of atoms/cell      =            2
     number of atomic types    =            2
     number of electrons       =         8.00
     number of Kohn-Sham states=            4
     kinetic-energy cutoff     =      16.0000  Ry
     charge density cutoff     =      64.0000  Ry
     Exchange-correlation      =  SLA  PZ   NOGX NOGC (1100)

     celldm(1)=  10.500000  celldm(2)=   0.000000  celldm(3)=   0.000000
     celldm(4)=   0.000000  celldm(5)=   0.000000  celldm(6)=   0.000000

     crystal axes: (cart. coord. in units of a_0)
               a(1) = ( -0.500000  0.000000  0.500000 )  
               a(2) = (  0.000000  0.500000  0.500000 )  
               a(3) = ( -0.500000  0.500000  0.000000 )  

     reciprocal axes: (cart. coord. in units 2 pi/a_0)
               b(1) = ( -1.000000 -1.000000  1.000000 )  
               b(2) = (  1.000000  1.000000  1.000000 )  
               b(3) = ( -1.000000  1.000000 -1.000000 )  


     PseudoPot. # 1 for Al read from file Al.pz-vbc.UPF
     Pseudo is Norm-conserving, Zval =  3.0
     Generated by new atomic code, or converted to UPF format
     Using radial grid of  171 points,  2 beta functions with: 
                l(1) =   0
                l(2) =   1

     PseudoPot. # 2 for As read from file As.pz-bhs.UPF
     Pseudo is Norm-conserving, Zval =  5.0
     Generated by new atomic code, or converted to UPF format
     Using radial grid of  525 points,  2 beta functions with: 
                l(1) =   0
                l(2) =   1

     atomic species   valence    mass     pseudopotential
        Al             3.00    26.98000     Al( 1.00)
        As             5.00    74.92000     As( 1.00)

     24 Sym.Ops. (no inversion)


   Cartesian axes

     site n.     atom                  positions (a_0 units)
         1           Al  tau(  1) = (   0.0000000   0.0000000   0.0000000  )
         2           As  tau(  2) = (   0.2500000   0.2500000   0.2500000  )

     number of k points=   20
                       cart. coord. in units 2pi/a_0
        k(    1) = (   0.2500000   0.2500000   0.2500000), wk =   0.1875000
        k(    2) = (   0.0000000   0.5000000   0.0000000), wk =   0.0000000
        k(    3) = (   0.2500000   0.2500000   0.7500000), wk =   0.3750000
        k(    4) = (   0.0000000   0.5000000   0.5000000), wk =   0.0000000
        k(    5) = (  -0.2500000   0.2500000  -0.2500000), wk =   0.0625000
        k(    6) = (  -0.5000000   0.5000000  -0.5000000), wk =   0.0000000
        k(    7) = (  -0.2500000  -0.2500000  -0.2500000), wk =   0.1875000
        k(    8) = (  -0.5000000   0.0000000  -0.5000000), wk =   0.0000000
        k(    9) = (   0.2500000  -0.2500000   0.2500000), wk =   0.0625000
        k(   10) = (   0.0000000   0.0000000   0.0000000), wk =   0.0000000
        k(   11) = (  -0.2500000   0.2500000  -0.7500000), wk =   0.1875000
        k(   12) = (  -0.5000000   0.5000000  -1.0000000), wk =   0.0000000
        k(   13) = (  -0.7500000  -0.2500000   0.2500000), wk =   0.1875000
        k(   14) = (  -1.0000000   0.0000000   0.0000000), wk =   0.0000000
        k(   15) = (  -0.2500000  -0.2500000  -0.7500000), wk =   0.3750000
        k(   16) = (  -0.5000000   0.0000000  -1.0000000), wk =   0.0000000
        k(   17) = (   0.2500000  -0.2500000   0.7500000), wk =   0.1875000
        k(   18) = (   0.0000000   0.0000000   0.5000000), wk =   0.0000000
        k(   19) = (  -0.2500000   0.2500000   0.7500000), wk =   0.1875000
        k(   20) = (  -0.5000000   0.5000000   0.5000000), wk =   0.0000000

     G cutoff =  178.7306  (   2445 G-vectors)     FFT grid: ( 20, 20, 20)

     Largest allocated arrays     est. size (Mb)     dimensions
        Kohn-Sham Wavefunctions         0.02 Mb     (    331,   4)
        NL pseudopotentials             0.04 Mb     (    331,   8)
        Each V/rho on FFT grid          0.12 Mb     (   8000)
        Each G-vector array             0.02 Mb     (   2445)
        G-vector shells                 0.00 Mb     (     61)
     Largest temporary arrays     est. size (Mb)     dimensions
        Auxiliary wavefunctions         0.08 Mb     (    331,  16)
        Each subspace H/S matrix        0.00 Mb     (     16,  16)
        Each <psi_i|beta_j> matrix      0.00 Mb     (      8,   4)

     The potential is recalculated from file :
     /home/dalcorso/tmp/2.3/_phalas.save/charge-density.dat

     Starting wfc are   13 atomic wfcs

     total cpu time spent up to now is      0.07 secs

     per-process dynamical memory:     4.0 Mb

     Band Structure Calculation
     Davidson diagonalization with overlap

     ethr =  1.25E-10,  avg # of iterations = 10.0

     total cpu time spent up to now is      0.85 secs

     End of band structure calculation

          k = 0.2500 0.2500 0.2500     band energies (ev):

    -6.3573   1.7036   4.6971   4.6971

          k = 0.0000 0.5000 0.0000     band energies (ev):

    -6.1428   1.9398   3.7849   3.7849

          k = 0.2500 0.2500 0.7500     band energies (ev):

    -5.1817  -0.0414   2.3126   3.5087

          k = 0.0000 0.5000 0.5000     band energies (ev):

    -5.5285   0.5006   2.1486   4.2665

          k =-0.2500 0.2500-0.2500     band energies (ev):

    -6.3573   1.7036   4.6971   4.6971

          k =-0.5000 0.5000-0.5000     band energies (ev):

    -5.4216  -0.6402   4.3485   4.3485

          k =-0.2500-0.2500-0.2500     band energies (ev):

    -6.3573   1.7036   4.6971   4.6971

          k =-0.5000 0.0000-0.5000     band energies (ev):

    -5.5285   0.5006   2.1486   4.2665

          k = 0.2500-0.2500 0.2500     band energies (ev):

    -6.3573   1.7036   4.6971   4.6971

          k = 0.0000 0.0000 0.0000     band energies (ev):

    -6.9795   5.1763   5.1763   5.1763

          k =-0.2500 0.2500-0.7500     band energies (ev):

    -5.1817  -0.0414   2.3126   3.5087

          k =-0.5000 0.5000-1.0000     band energies (ev):

    -5.5285   0.5006   2.1486   4.2665

          k =-0.7500-0.2500 0.2500     band energies (ev):

    -5.1817  -0.0414   2.3126   3.5087

          k =-1.0000 0.0000 0.0000     band energies (ev):

    -4.8214  -0.4470   2.9275   2.9275

          k =-0.2500-0.2500-0.7500     band energies (ev):

    -5.1817  -0.0414   2.3126   3.5087

          k =-0.5000 0.0000-1.0000     band energies (ev):

    -4.7849  -0.0517   1.7950   2.1911

          k = 0.2500-0.2500 0.7500     band energies (ev):

    -5.1817  -0.0414   2.3126   3.5087

          k = 0.0000 0.0000 0.5000     band energies (ev):

    -6.1428   1.9398   3.7849   3.7849

          k =-0.2500 0.2500 0.7500     band energies (ev):

    -5.1817  -0.0414   2.3126   3.5087

          k =-0.5000 0.5000 0.5000     band energies (ev):

    -5.4216  -0.6402   4.3485   4.3485

     Writing output data file alas.save

     Modes are read from file 

                                                                                

     bravais-lattice index     =            2
     lattice parameter (a_0)   =      10.5000  a.u.
     unit-cell volume          =     289.4062 (a.u.)^3
     number of atoms/cell      =            2
     number of atomic types    =            2
     kinetic-energy cut-off    =      16.0000  Ry
     charge density cut-off    =      64.0000  Ry
     convergence threshold     =      1.0E-12
     beta                      =       0.7000
     number of iterations used =            4
     Exchange-correlation      =  SLA  PZ   NOGX NOGC (1100)


     celldm(1)=   10.50000  celldm(2)=    0.00000  celldm(3)=    0.00000
     celldm(4)=    0.00000  celldm(5)=    0.00000  celldm(6)=    0.00000

     crystal axes: (cart. coord. in units of a_0)
               a(1) = ( -0.5000  0.0000  0.5000 )  
               a(2) = (  0.0000  0.5000  0.5000 )  
               a(3) = ( -0.5000  0.5000  0.0000 )  

     reciprocal axes: (cart. coord. in units 2 pi/a_0)
               b(1) = ( -1.0000 -1.0000  1.0000 )  
               b(2) = (  1.0000  1.0000  1.0000 )  
               b(3) = ( -1.0000  1.0000 -1.0000 )  


     Atoms inside the unit cell: 

   Cartesian axes

     site n.  atom      mass           positions (a_0 units)
        1        Al  26.9800   tau( 1) = (    0.00000    0.00000    0.00000  )
        2        As  74.9200   tau( 2) = (    0.25000    0.25000    0.25000  )

     Computing dynamical matrix for 
                    q = (  -0.2500000   0.2500000  -0.2500000 )
 
      6 Sym.Ops. (no q -> -q+G )


     G cutoff =  178.7306  (   2445 G-vectors)     FFT grid: ( 20, 20, 20)
     number of k points=   20

     PseudoPot. # 1 for Al read from file Al.pz-vbc.UPF
     Pseudo is Norm-conserving, Zval =  3.0
     Generated by new atomic code, or converted to UPF format
     Using radial grid of  171 points,  2 beta functions with: 
                l(1) =   0
                l(2) =   1

     PseudoPot. # 2 for As read from file As.pz-bhs.UPF
     Pseudo is Norm-conserving, Zval =  5.0
     Generated by new atomic code, or converted to UPF format
     Using radial grid of  525 points,  2 beta functions with: 
                l(1) =   0
                l(2) =   1


     Atomic displacements:
     There are   4 irreducible representations

     Representation     1      2 modes -E    L_3  Done

     Representation     2      1 modes -E    L_3  Done

     Representation     3      2 modes -E    L_3 To be done

     Representation     4      1 modes -A_1  L_1  Not done in this run

     Compute atoms:     1,



     Alpha used in Ewald sum =   0.7000
     PHONON       :     1.37s CPU time,        1.40s wall time



     Representation #  3 modes #   4  5

     Self-consistent Calculation

      iter #   1 total cpu time :     1.7 secs   av.it.:   5.1
      thresh= 0.100E-01 alpha_mix =  0.700 |ddv_scf|^2 =  0.111E-06

      iter #   2 total cpu time :     2.3 secs   av.it.:   9.4
      thresh= 0.333E-04 alpha_mix =  0.700 |ddv_scf|^2 =  0.449E-08

      iter #   3 total cpu time :     2.9 secs   av.it.:   9.2
      thresh= 0.670E-05 alpha_mix =  0.700 |ddv_scf|^2 =  0.132E-09

      iter #   4 total cpu time :     3.5 secs   av.it.:   9.1
      thresh= 0.115E-05 alpha_mix =  0.700 |ddv_scf|^2 =  0.694E-11

      iter #   5 total cpu time :     4.1 secs   av.it.:   8.8
      thresh= 0.263E-06 alpha_mix =  0.700 |ddv_scf|^2 =  0.115E-14

     End of self-consistent calculation

     Convergence has been achieved 

     Not diagonalizing because representation    4 is not done
 
     init_run     :     0.07s CPU
     electrons    :     0.78s CPU

     Called by init_run:
     wfcinit      :     0.00s CPU
     potinit      :     0.00s CPU

     Called by electrons:
     c_bands      :     0.77s CPU
     v_of_rho     :     0.00s CPU (       2 calls,   0.001 s avg)

     Called by c_bands:
     init_us_2    :     0.01s CPU (     100 calls,   0.000 s avg)
     cegterg      :     0.61s CPU (      20 calls,   0.030 s avg)

     Called by *egterg:
     h_psi        :     0.69s CPU (     240 calls,   0.003 s avg)
     g_psi        :     0.02s CPU (     200 calls,   0.000 s avg)
     cdiaghg      :     0.03s CPU (     220 calls,   0.000 s avg)

     Called by h_psi:
     add_vuspsi   :     0.02s CPU (    1221 calls,   0.000 s avg)

     General routines
     calbec       :     0.07s CPU (    2382 calls,   0.000 s avg)
     cft3s        :     2.91s CPU (   10761 calls,   0.000 s avg)
     davcio       :     0.00s CPU (     476 calls,   0.000 s avg)
 
     Parallel routines
 
     PHONON       :     4.11s CPU time,        4.17s wall time

     INITIALIZATION: 
     phq_setup    :     0.01s CPU
     phq_init     :     0.04s CPU
 
     phq_init     :     0.04s CPU
     init_vloc    :     0.00s CPU (       2 calls,   0.001 s avg)
     init_us_1    :     0.06s CPU (       2 calls,   0.030 s avg)
 
     DYNAMICAL MATRIX:
     dynmat0      :     0.01s CPU
     phqscf       :     2.73s CPU
     dynmatrix    :     0.00s CPU
 
     phqscf       :     2.73s CPU
     solve_linter :     2.72s CPU
     drhodv       :     0.01s CPU
 
     dynmat0      :     0.01s CPU
     dynmat_us    :     0.01s CPU
     d2ionq       :     0.00s CPU
 
     dynmat_us    :     0.01s CPU
 
     phqscf       :     2.73s CPU
     solve_linter :     2.72s CPU
 
     solve_linter :     2.72s CPU
     dvqpsi_us    :     0.06s CPU (      20 calls,   0.003 s avg)
     ortho        :     0.01s CPU (     100 calls,   0.000 s avg)
     cgsolve      :     2.13s CPU (     100 calls,   0.021 s avg)
     incdrhoscf   :     0.25s CPU (     100 calls,   0.003 s avg)
     vpsifft      :     0.19s CPU (      80 calls,   0.002 s avg)
     dv_of_drho   :     0.01s CPU (      10 calls,   0.001 s avg)
     mix_pot      :     0.01s CPU (       5 calls,   0.002 s avg)
     psymdvscf    :     0.02s CPU (       5 calls,   0.004 s avg)
 
     dvqpsi_us    :     0.06s CPU (      20 calls,   0.003 s avg)
     dvqpsi_us_on :     0.00s CPU (      20 calls,   0.000 s avg)
 
     cgsolve      :     2.13s CPU (     100 calls,   0.021 s avg)
     ch_psi       :     2.11s CPU (     981 calls,   0.002 s avg)
 
     ch_psi       :     2.11s CPU (     981 calls,   0.002 s avg)
     h_psiq       :     2.03s CPU (     981 calls,   0.002 s avg)
     last         :     0.07s CPU (     981 calls,   0.000 s avg)
 
     h_psiq       :     2.03s CPU (     981 calls,   0.002 s avg)
     firstfft     :     0.98s CPU (    3489 calls,   0.000 s avg)
     secondfft    :     0.91s CPU (    3489 calls,   0.000 s avg)
     add_vuspsi   :     0.02s CPU (    1221 calls,   0.000 s avg)
 
     incdrhoscf   :     0.25s CPU (     100 calls,   0.003 s avg)
 
 
      General routines
     calbec       :     0.07s CPU (    2382 calls,   0.000 s avg)
     cft3s        :     2.91s CPU (   10761 calls,   0.000 s avg)
     davcio       :     0.00s CPU (     476 calls,   0.000 s avg)
     write_rec    :     0.03s CPU (       6 calls,   0.005 s avg)
 
