
     Program PHONON v.4.2CVS    starts on 13Nov2009 at 16:37:42 

     This program is part of the open-source Quantum ESPRESSO suite
     for quantum simulation of materials; please acknowledge
         "P. Giannozzi et al., J. Phys.:Condens. Matter 21 395502 (2009);
          URL http://www.quantum-espresso.org", 
     in publications or presentations arising from this work. More details at
     http://www.quantum-espresso.org/wiki/index.php/Citing_Quantum-ESPRESSO

     Parallel version (MPI), running on     1 processors

     Ultrasoft (Vanderbilt) Pseudopotentials

     Planes per process (thick) : nr3 = 20 npp =  20 ncplane =  400
 
     Proc/  planes cols     G    planes cols    G      columns  G
     Pool       (dense grid)       (smooth grid)      (wavefct grid)
        1    20    241     2445   20    241     2445     85      459
 
        1 /   8 q-points for this run, from  8 to  8:
       N       xq(1)         xq(2)         xq(3) 
       1   0.000000000   0.000000000   0.000000000
       2  -0.250000000   0.250000000  -0.250000000
       3   0.500000000  -0.500000000   0.500000000
       4   0.000000000   0.500000000   0.000000000
       5   0.750000000  -0.250000000   0.750000000
       6   0.500000000   0.000000000   0.500000000
       7   0.000000000  -1.000000000   0.000000000
       8  -0.500000000  -1.000000000   0.000000000
 

     Calculation of q =   -0.5000000  -1.0000000   0.0000000

     RECOVER from restart file failed: file not found

     Planes per process (thick) : nr3 = 20 npp =  20 ncplane =  400
 
     Proc/  planes cols     G    planes cols    G      columns  G
     Pool       (dense grid)       (smooth grid)      (wavefct grid)
        1    20    241     2445   20    241     2445     91      609
 


     bravais-lattice index     =            2
     lattice parameter (a_0)   =      10.5000  a.u.
     unit-cell volume          =     289.4062 (a.u.)^3
     number of atoms/cell      =            2
     number of atomic types    =            2
     number of electrons       =         8.00
     number of Kohn-Sham states=            4
     kinetic-energy cutoff     =      16.0000  Ry
     charge density cutoff     =      64.0000  Ry
     Exchange-correlation      =  SLA  PZ   NOGX NOGC (1100)

     celldm(1)=  10.500000  celldm(2)=   0.000000  celldm(3)=   0.000000
     celldm(4)=   0.000000  celldm(5)=   0.000000  celldm(6)=   0.000000

     crystal axes: (cart. coord. in units of a_0)
               a(1) = ( -0.500000  0.000000  0.500000 )  
               a(2) = (  0.000000  0.500000  0.500000 )  
               a(3) = ( -0.500000  0.500000  0.000000 )  

     reciprocal axes: (cart. coord. in units 2 pi/a_0)
               b(1) = ( -1.000000 -1.000000  1.000000 )  
               b(2) = (  1.000000  1.000000  1.000000 )  
               b(3) = ( -1.000000  1.000000 -1.000000 )  


     PseudoPot. # 1 for Al read from file Al.pz-vbc.UPF
     Pseudo is Norm-conserving, Zval =  3.0
     Generated by new atomic code, or converted to UPF format
     Using radial grid of  171 points,  2 beta functions with: 
                l(1) =   0
                l(2) =   1

     PseudoPot. # 2 for As read from file As.pz-bhs.UPF
     Pseudo is Norm-conserving, Zval =  5.0
     Generated by new atomic code, or converted to UPF format
     Using radial grid of  525 points,  2 beta functions with: 
                l(1) =   0
                l(2) =   1

     atomic species   valence    mass     pseudopotential
        Al             3.00    26.98000     Al( 1.00)
        As             5.00    74.92000     As( 1.00)

     24 Sym.Ops. (no inversion)


   Cartesian axes

     site n.     atom                  positions (a_0 units)
         1           Al  tau(  1) = (   0.0000000   0.0000000   0.0000000  )
         2           As  tau(  2) = (   0.2500000   0.2500000   0.2500000  )

     number of k points=   16
                       cart. coord. in units 2pi/a_0
        k(    1) = (   0.2500000   0.2500000   0.2500000), wk =   0.2500000
        k(    2) = (  -0.2500000  -0.7500000   0.2500000), wk =   0.0000000
        k(    3) = (   0.2500000   0.2500000   0.7500000), wk =   0.2500000
        k(    4) = (  -0.2500000  -0.7500000   0.7500000), wk =   0.0000000
        k(    5) = (  -0.2500000  -0.2500000  -0.2500000), wk =   0.2500000
        k(    6) = (  -0.7500000  -1.2500000  -0.2500000), wk =   0.0000000
        k(    7) = (   0.2500000   0.7500000   0.2500000), wk =   0.2500000
        k(    8) = (  -0.2500000  -0.2500000   0.2500000), wk =   0.0000000
        k(    9) = (   0.7500000   0.2500000   0.2500000), wk =   0.2500000
        k(   10) = (   0.2500000  -0.7500000   0.2500000), wk =   0.0000000
        k(   11) = (  -0.2500000  -0.2500000  -0.7500000), wk =   0.2500000
        k(   12) = (  -0.7500000  -1.2500000  -0.7500000), wk =   0.0000000
        k(   13) = (   0.2500000   0.2500000  -0.7500000), wk =   0.2500000
        k(   14) = (  -0.2500000  -0.7500000  -0.7500000), wk =   0.0000000
        k(   15) = (   0.7500000  -0.2500000   0.2500000), wk =   0.2500000
        k(   16) = (   0.2500000  -1.2500000   0.2500000), wk =   0.0000000

     G cutoff =  178.7306  (   2445 G-vectors)     FFT grid: ( 20, 20, 20)

     Largest allocated arrays     est. size (Mb)     dimensions
        Kohn-Sham Wavefunctions         0.02 Mb     (    311,   4)
        NL pseudopotentials             0.04 Mb     (    311,   8)
        Each V/rho on FFT grid          0.12 Mb     (   8000)
        Each G-vector array             0.02 Mb     (   2445)
        G-vector shells                 0.00 Mb     (     61)
     Largest temporary arrays     est. size (Mb)     dimensions
        Auxiliary wavefunctions         0.08 Mb     (    311,  16)
        Each subspace H/S matrix        0.00 Mb     (     16,  16)
        Each <psi_i|beta_j> matrix      0.00 Mb     (      8,   4)

     The potential is recalculated from file :
     /home/dalcorso/tmp/8.5/_phalas.save/charge-density.dat

     Starting wfc are   13 atomic wfcs

     total cpu time spent up to now is      0.07 secs

     per-process dynamical memory:     4.0 Mb

     Band Structure Calculation
     Davidson diagonalization with overlap

     ethr =  1.25E-10,  avg # of iterations = 10.2

     total cpu time spent up to now is      0.64 secs

     End of band structure calculation

          k = 0.2500 0.2500 0.2500     band energies (ev):

    -6.3573   1.7036   4.6971   4.6971

          k =-0.2500-0.7500 0.2500     band energies (ev):

    -5.1817  -0.0414   2.3126   3.5087

          k = 0.2500 0.2500 0.7500     band energies (ev):

    -5.1817  -0.0414   2.3126   3.5087

          k =-0.2500-0.7500 0.7500     band energies (ev):

    -5.1817  -0.0414   2.3126   3.5087

          k =-0.2500-0.2500-0.2500     band energies (ev):

    -6.3573   1.7036   4.6971   4.6971

          k =-0.7500-1.2500-0.2500     band energies (ev):

    -5.1817  -0.0414   2.3126   3.5087

          k = 0.2500 0.7500 0.2500     band energies (ev):

    -5.1817  -0.0414   2.3126   3.5087

          k =-0.2500-0.2500 0.2500     band energies (ev):

    -6.3573   1.7036   4.6971   4.6971

          k = 0.7500 0.2500 0.2500     band energies (ev):

    -5.1817  -0.0414   2.3126   3.5087

          k = 0.2500-0.7500 0.2500     band energies (ev):

    -5.1817  -0.0414   2.3126   3.5087

          k =-0.2500-0.2500-0.7500     band energies (ev):

    -5.1817  -0.0414   2.3126   3.5087

          k =-0.7500-1.2500-0.7500     band energies (ev):

    -6.3573   1.7036   4.6971   4.6971

          k = 0.2500 0.2500-0.7500     band energies (ev):

    -5.1817  -0.0414   2.3126   3.5087

          k =-0.2500-0.7500-0.7500     band energies (ev):

    -5.1817  -0.0414   2.3126   3.5087

          k = 0.7500-0.2500 0.2500     band energies (ev):

    -5.1817  -0.0414   2.3126   3.5087

          k = 0.2500-1.2500 0.2500     band energies (ev):

    -5.1817  -0.0414   2.3126   3.5087

     Writing output data file alas.save

     Modes are read from file 

                                                                                

     bravais-lattice index     =            2
     lattice parameter (a_0)   =      10.5000  a.u.
     unit-cell volume          =     289.4062 (a.u.)^3
     number of atoms/cell      =            2
     number of atomic types    =            2
     kinetic-energy cut-off    =      16.0000  Ry
     charge density cut-off    =      64.0000  Ry
     convergence threshold     =      1.0E-12
     beta                      =       0.7000
     number of iterations used =            4
     Exchange-correlation      =  SLA  PZ   NOGX NOGC (1100)


     celldm(1)=   10.50000  celldm(2)=    0.00000  celldm(3)=    0.00000
     celldm(4)=    0.00000  celldm(5)=    0.00000  celldm(6)=    0.00000

     crystal axes: (cart. coord. in units of a_0)
               a(1) = ( -0.5000  0.0000  0.5000 )  
               a(2) = (  0.0000  0.5000  0.5000 )  
               a(3) = ( -0.5000  0.5000  0.0000 )  

     reciprocal axes: (cart. coord. in units 2 pi/a_0)
               b(1) = ( -1.0000 -1.0000  1.0000 )  
               b(2) = (  1.0000  1.0000  1.0000 )  
               b(3) = ( -1.0000  1.0000 -1.0000 )  


     Atoms inside the unit cell: 

   Cartesian axes

     site n.  atom      mass           positions (a_0 units)
        1        Al  26.9800   tau( 1) = (    0.00000    0.00000    0.00000  )
        2        As  74.9200   tau( 2) = (    0.25000    0.25000    0.25000  )

     Computing dynamical matrix for 
                    q = (  -0.5000000  -1.0000000   0.0000000 )
 
      4 Sym.Ops. (no q -> -q+G )


     G cutoff =  178.7306  (   2445 G-vectors)     FFT grid: ( 20, 20, 20)
     number of k points=   16

     PseudoPot. # 1 for Al read from file Al.pz-vbc.UPF
     Pseudo is Norm-conserving, Zval =  3.0
     Generated by new atomic code, or converted to UPF format
     Using radial grid of  171 points,  2 beta functions with: 
                l(1) =   0
                l(2) =   1

     PseudoPot. # 2 for As read from file As.pz-bhs.UPF
     Pseudo is Norm-conserving, Zval =  5.0
     Generated by new atomic code, or converted to UPF format
     Using radial grid of  525 points,  2 beta functions with: 
                l(1) =   0
                l(2) =   1


     Atomic displacements:
     There are   6 irreducible representations

     Representation     1      1 modes -E    W_4  Done

     Representation     2      1 modes -E*   W_2  Done

     Representation     3      1 modes -B    W_3  Done

     Representation     4      1 modes -B    W_3  Done

     Representation     5      1 modes -B    W_3 To be done

     Representation     6      1 modes -B    W_3  Not done in this run

     Compute atoms:     2,



     Alpha used in Ewald sum =   0.7000
     PHONON       :     1.18s CPU time,        1.23s wall time



     Representation #  5 mode #   5

     Self-consistent Calculation

      iter #   1 total cpu time :     1.4 secs   av.it.:   6.2
      thresh= 0.100E-01 alpha_mix =  0.700 |ddv_scf|^2 =  0.501E-04

      iter #   2 total cpu time :     1.6 secs   av.it.:   9.0
      thresh= 0.708E-03 alpha_mix =  0.700 |ddv_scf|^2 =  0.310E-04

      iter #   3 total cpu time :     1.8 secs   av.it.:   8.2
      thresh= 0.557E-03 alpha_mix =  0.700 |ddv_scf|^2 =  0.521E-09

      iter #   4 total cpu time :     2.0 secs   av.it.:   8.5
      thresh= 0.228E-05 alpha_mix =  0.700 |ddv_scf|^2 =  0.490E-10

      iter #   5 total cpu time :     2.2 secs   av.it.:   8.2
      thresh= 0.700E-06 alpha_mix =  0.700 |ddv_scf|^2 =  0.951E-13

     End of self-consistent calculation

     Convergence has been achieved 

     Not diagonalizing because representation    6 is not done
 
     init_run     :     0.07s CPU
     electrons    :     0.57s CPU

     Called by init_run:
     wfcinit      :     0.00s CPU
     potinit      :     0.00s CPU

     Called by electrons:
     c_bands      :     0.57s CPU
     v_of_rho     :     0.00s CPU (       2 calls,   0.001 s avg)

     Called by c_bands:
     init_us_2    :     0.01s CPU (      80 calls,   0.000 s avg)
     cegterg      :     0.43s CPU (      16 calls,   0.027 s avg)

     Called by *egterg:
     h_psi        :     0.49s CPU (     196 calls,   0.003 s avg)
     g_psi        :     0.01s CPU (     164 calls,   0.000 s avg)
     cdiaghg      :     0.02s CPU (     180 calls,   0.000 s avg)

     Called by h_psi:
     add_vuspsi   :     0.01s CPU (     564 calls,   0.000 s avg)

     General routines
     calbec       :     0.03s CPU (    1044 calls,   0.000 s avg)
     cft3s        :     1.31s CPU (    5096 calls,   0.000 s avg)
     davcio       :     0.00s CPU (     266 calls,   0.000 s avg)
 
     Parallel routines
 
     PHONON       :     2.23s CPU time,        2.30s wall time

     INITIALIZATION: 
     phq_setup    :     0.01s CPU
     phq_init     :     0.04s CPU
 
     phq_init     :     0.04s CPU
     init_vloc    :     0.00s CPU (       2 calls,   0.001 s avg)
     init_us_1    :     0.06s CPU (       2 calls,   0.029 s avg)
 
     DYNAMICAL MATRIX:
     dynmat0      :     0.01s CPU
     phqscf       :     1.04s CPU
     dynmatrix    :     0.00s CPU
 
     phqscf       :     1.04s CPU
     solve_linter :     1.03s CPU
     drhodv       :     0.00s CPU
 
     dynmat0      :     0.01s CPU
     dynmat_us    :     0.00s CPU
     d2ionq       :     0.00s CPU
 
     dynmat_us    :     0.00s CPU
 
     phqscf       :     1.04s CPU
     solve_linter :     1.03s CPU
 
     solve_linter :     1.03s CPU
     dvqpsi_us    :     0.02s CPU (       8 calls,   0.003 s avg)
     ortho        :     0.00s CPU (      40 calls,   0.000 s avg)
     cgsolve      :     0.79s CPU (      40 calls,   0.020 s avg)
     incdrhoscf   :     0.09s CPU (      40 calls,   0.002 s avg)
     vpsifft      :     0.07s CPU (      32 calls,   0.002 s avg)
     dv_of_drho   :     0.01s CPU (       5 calls,   0.001 s avg)
     mix_pot      :     0.00s CPU (       5 calls,   0.001 s avg)
     psymdvscf    :     0.01s CPU (       5 calls,   0.002 s avg)
 
     dvqpsi_us    :     0.02s CPU (       8 calls,   0.003 s avg)
     dvqpsi_us_on :     0.00s CPU (       8 calls,   0.000 s avg)
 
     cgsolve      :     0.79s CPU (      40 calls,   0.020 s avg)
     ch_psi       :     0.78s CPU (     368 calls,   0.002 s avg)
 
     ch_psi       :     0.78s CPU (     368 calls,   0.002 s avg)
     h_psiq       :     0.76s CPU (     368 calls,   0.002 s avg)
     last         :     0.02s CPU (     368 calls,   0.000 s avg)
 
     h_psiq       :     0.76s CPU (     368 calls,   0.002 s avg)
     firstfft     :     0.35s CPU (    1362 calls,   0.000 s avg)
     secondfft    :     0.35s CPU (    1362 calls,   0.000 s avg)
     add_vuspsi   :     0.01s CPU (     564 calls,   0.000 s avg)
 
     incdrhoscf   :     0.09s CPU (      40 calls,   0.002 s avg)
 
 
      General routines
     calbec       :     0.03s CPU (    1044 calls,   0.000 s avg)
     cft3s        :     1.31s CPU (    5096 calls,   0.000 s avg)
     davcio       :     0.00s CPU (     266 calls,   0.000 s avg)
     write_rec    :     0.04s CPU (       6 calls,   0.006 s avg)
 
