
     Program PWSCF v.7.0rc1 starts on  3Dec2021 at 12:38:11 

     This program is part of the open-source Quantum ESPRESSO suite
     for quantum simulation of materials; please cite
         "P. Giannozzi et al., J. Phys.:Condens. Matter 21 395502 (2009);
         "P. Giannozzi et al., J. Phys.:Condens. Matter 29 465901 (2017);
         "P. Giannozzi et al., J. Chem. Phys. 152 154105 (2020);
          URL http://www.quantum-espresso.org", 
     in publications or presentations arising from this work. More details at
     http://www.quantum-espresso.org/quote

     Parallel version (MPI), running on     4 processors

     MPI processes distributed on     1 nodes
     R & G space division:  proc/nbgrp/npool/nimage =       4
     5625 MiB available memory on the printing compute node when the environment starts

     Reading input from metaGGA-spin.in

     Current dimensions of program PWSCF are:
     Max number of different atomic species (ntypx) = 10
     Max number of k-points (npk) =  40000
     Max angular momentum in pseudopotentials (lmaxx) =  4
     file Fe.pbe-mt_fhi.UPF: wavefunction(s)  4f renormalized

     IMPORTANT: XC functional enforced from input :
     Exchange-correlation= SCAN
                           (   0   0   0   0   0 263 267)
     Any further DFT definition will be discarded
     Please, verify this is what you really want

     Message from routine setup:
     no reason to have ecutrho>4*ecutwfc

     Subspace diagonalization in iterative solution of the eigenvalue problem:
     a serial algorithm will be used


     Parallelization info
     --------------------
     sticks:   dense  smooth     PW     G-vecs:    dense   smooth      PW
     Min         164      66     22                 2690      682     138
     Max         165      67     23                 2691      684     139
     Sum         657     265     91                10761     2731     555

     Using Slab Decomposition



     bravais-lattice index     =            3
     lattice parameter (alat)  =       5.4060  a.u.
     unit-cell volume          =      78.9947 (a.u.)^3
     number of atoms/cell      =            1
     number of atomic types    =            1
     number of electrons       =         8.00
     number of Kohn-Sham states=            8
     kinetic-energy cutoff     =      40.0000  Ry
     charge density cutoff     =     400.0000  Ry
     scf convergence threshold =      1.0E-07
     mixing beta               =       0.3000
     number of iterations used =            8  plain     mixing
     Exchange-correlation= SCAN
                           (   0   0   0   0   0 263 267)

     celldm(1)=   5.406000  celldm(2)=   0.000000  celldm(3)=   0.000000
     celldm(4)=   0.000000  celldm(5)=   0.000000  celldm(6)=   0.000000

     crystal axes: (cart. coord. in units of alat)
               a(1) = (   0.500000   0.500000   0.500000 )  
               a(2) = (  -0.500000   0.500000   0.500000 )  
               a(3) = (  -0.500000  -0.500000   0.500000 )  

     reciprocal axes: (cart. coord. in units 2 pi/alat)
               b(1) = (  1.000000  0.000000  1.000000 )  
               b(2) = ( -1.000000  1.000000  0.000000 )  
               b(3) = (  0.000000 -1.000000  1.000000 )  


     PseudoPot. # 1 for Fe read from file:
     ./../pseudo/Fe.pbe-mt_fhi.UPF
     MD5 check sum: b448308748de286228c25f042382555d
     Pseudo is Norm-conserving, Zval =  8.0
     Generated using FHI98PP, converted with fhi2upf.x v.5.0.2
     Using radial grid of  521 points,  3 beta functions with: 
                l(1) =   0
                l(2) =   2
                l(3) =   3

     atomic species   valence    mass     pseudopotential
        Fe             8.00     1.00000     Fe( 1.00)

     Starting magnetic structure 
     atomic species   magnetization
        Fe           0.300

     48 Sym. Ops., with inversion, found



   Cartesian axes

     site n.     atom                  positions (alat units)
         1           Fe  tau(   1) = (   0.0000000   0.0000000   0.0000000  )

     number of k points=    84  Marzari-Vanderbilt smearing, width (Ry)=  0.0100
                       cart. coord. in units 2pi/alat
        k(    1) = (   0.0000000   0.0000000   0.0000000), wk =   0.0004552
        k(    2) = (   0.0000000  -0.0769231   0.0769231), wk =   0.0054620
        k(    3) = (   0.0000000  -0.1538462   0.1538462), wk =   0.0054620
        k(    4) = (   0.0000000  -0.2307692   0.2307692), wk =   0.0054620
        k(    5) = (   0.0000000  -0.3076923   0.3076923), wk =   0.0054620
        k(    6) = (   0.0000000  -0.3846154   0.3846154), wk =   0.0054620
        k(    7) = (   0.0000000  -0.4615385   0.4615385), wk =   0.0054620
        k(    8) = (  -0.0769231  -0.0769231   0.1538462), wk =   0.0109240
        k(    9) = (  -0.0769231  -0.1538462   0.2307692), wk =   0.0218480
        k(   10) = (  -0.0769231  -0.2307692   0.3076923), wk =   0.0218480
        k(   11) = (  -0.0769231  -0.3076923   0.3846154), wk =   0.0218480
        k(   12) = (  -0.0769231  -0.3846154   0.4615385), wk =   0.0218480
        k(   13) = (  -0.0769231   0.5384615  -0.4615385), wk =   0.0109240
        k(   14) = (  -0.1538462  -0.1538462   0.3076923), wk =   0.0109240
        k(   15) = (  -0.1538462  -0.2307692   0.3846154), wk =   0.0218480
        k(   16) = (  -0.1538462  -0.3076923   0.4615385), wk =   0.0218480
        k(   17) = (  -0.1538462   0.6153846  -0.4615385), wk =   0.0218480
        k(   18) = (  -0.2307692  -0.2307692   0.4615385), wk =   0.0109240
        k(   19) = (  -0.2307692   0.6923077  -0.4615385), wk =   0.0218480
        k(   20) = (  -0.2307692   0.6153846  -0.3846154), wk =   0.0109240
        k(   21) = (  -0.3076923   0.6923077  -0.3846154), wk =   0.0109240
        k(   22) = (   0.0000000   0.0000000   0.1538462), wk =   0.0027310
        k(   23) = (   0.0000000  -0.0769231   0.2307692), wk =   0.0109240
        k(   24) = (   0.0000000  -0.1538462   0.3076923), wk =   0.0109240
        k(   25) = (   0.0000000  -0.2307692   0.3846154), wk =   0.0109240
        k(   26) = (   0.0000000  -0.3076923   0.4615385), wk =   0.0109240
        k(   27) = (   0.0000000  -0.3846154   0.5384615), wk =   0.0109240
        k(   28) = (  -0.0769231  -0.0769231   0.3076923), wk =   0.0109240
        k(   29) = (  -0.0769231  -0.1538462   0.3846154), wk =   0.0218480
        k(   30) = (  -0.0769231  -0.2307692   0.4615385), wk =   0.0218480
        k(   31) = (  -0.0769231  -0.3076923   0.5384615), wk =   0.0218480
        k(   32) = (  -0.0769231   0.6153846  -0.3846154), wk =   0.0109240
        k(   33) = (  -0.1538462   0.1538462   0.1538462), wk =   0.0036413
        k(   34) = (  -0.1538462  -0.1538462   0.4615385), wk =   0.0109240
        k(   35) = (  -0.1538462  -0.2307692   0.5384615), wk =   0.0218480
        k(   36) = (  -0.1538462   0.6923077  -0.3846154), wk =   0.0218480
        k(   37) = (  -0.2307692   0.2307692   0.1538462), wk =   0.0109240
        k(   38) = (  -0.2307692   0.7692308  -0.3846154), wk =   0.0109240
        k(   39) = (  -0.2307692   0.6923077  -0.3076923), wk =   0.0109240
        k(   40) = (  -0.3076923   0.3076923   0.1538462), wk =   0.0109240
        k(   41) = (  -0.3076923   0.2307692   0.2307692), wk =   0.0109240
        k(   42) = (  -0.3846154   0.3846154   0.1538462), wk =   0.0109240
        k(   43) = (  -0.3846154   0.3076923   0.2307692), wk =   0.0218480
        k(   44) = (   0.5384615  -0.5384615   0.1538462), wk =   0.0109240
        k(   45) = (   0.5384615  -0.6153846   0.2307692), wk =   0.0218480
        k(   46) = (   0.5384615  -0.6923077   0.3076923), wk =   0.0109240
        k(   47) = (   0.4615385  -0.5384615   0.2307692), wk =   0.0109240
        k(   48) = (   0.4615385  -0.6153846   0.3076923), wk =   0.0218480
        k(   49) = (   0.3846154  -0.6153846   0.3846154), wk =   0.0036413
        k(   50) = (   0.0000000   0.0000000   0.3076923), wk =   0.0027310
        k(   51) = (   0.0000000  -0.0769231   0.3846154), wk =   0.0109240
        k(   52) = (   0.0000000  -0.1538462   0.4615385), wk =   0.0109240
        k(   53) = (   0.0000000  -0.2307692   0.5384615), wk =   0.0109240
        k(   54) = (   0.0000000  -0.3076923   0.6153846), wk =   0.0109240
        k(   55) = (  -0.0769231  -0.0769231   0.4615385), wk =   0.0109240
        k(   56) = (  -0.0769231  -0.1538462   0.5384615), wk =   0.0218480
        k(   57) = (  -0.0769231  -0.2307692   0.6153846), wk =   0.0218480
        k(   58) = (  -0.0769231   0.6923077  -0.3076923), wk =   0.0109240
        k(   59) = (  -0.1538462  -0.1538462   0.6153846), wk =   0.0109240
        k(   60) = (  -0.1538462   0.7692308  -0.3076923), wk =   0.0218480
        k(   61) = (  -0.2307692   0.7692308  -0.2307692), wk =   0.0036413
        k(   62) = (  -0.3076923   0.3076923   0.3076923), wk =   0.0036413
        k(   63) = (   0.6153846  -0.6153846   0.3076923), wk =   0.0109240
        k(   64) = (   0.5384615  -0.5384615   0.3076923), wk =   0.0109240
        k(   65) = (   0.5384615  -0.6153846   0.3846154), wk =   0.0109240
        k(   66) = (   0.4615385  -0.5384615   0.3846154), wk =   0.0109240
        k(   67) = (   0.0000000   0.0000000   0.4615385), wk =   0.0027310
        k(   68) = (   0.0000000  -0.0769231   0.5384615), wk =   0.0109240
        k(   69) = (   0.0000000  -0.1538462   0.6153846), wk =   0.0109240
        k(   70) = (   0.0000000  -0.2307692   0.6923077), wk =   0.0109240
        k(   71) = (  -0.0769231  -0.0769231   0.6153846), wk =   0.0109240
        k(   72) = (  -0.0769231  -0.1538462   0.6923077), wk =   0.0218480
        k(   73) = (  -0.0769231   0.7692308  -0.2307692), wk =   0.0109240
        k(   74) = (  -0.1538462   0.8461538  -0.2307692), wk =   0.0109240
        k(   75) = (   0.5384615  -0.5384615   0.4615385), wk =   0.0036413
        k(   76) = (   0.0000000   0.0000000   0.6153846), wk =   0.0027310
        k(   77) = (   0.0000000  -0.0769231   0.6923077), wk =   0.0109240
        k(   78) = (   0.0000000  -0.1538462   0.7692308), wk =   0.0109240
        k(   79) = (  -0.0769231  -0.0769231   0.7692308), wk =   0.0109240
        k(   80) = (  -0.0769231   0.8461538  -0.1538462), wk =   0.0109240
        k(   81) = (   0.0000000   0.0000000   0.7692308), wk =   0.0027310
        k(   82) = (   0.0000000  -0.0769231   0.8461538), wk =   0.0109240
        k(   83) = (  -0.0769231   0.9230769  -0.0769231), wk =   0.0036413
        k(   84) = (   0.0000000   0.0000000   0.9230769), wk =   0.0027310

     Dense  grid:    10761 G-vectors     FFT dimensions: (  30,  30,  30)

     Smooth grid:     2731 G-vectors     FFT dimensions: (  20,  20,  20)

     Estimated max dynamical RAM per process >       7.41 MB

     Estimated total dynamical RAM >      29.63 MB

     WARNING: libxc functional with ID  263 depends
      on external parameters: check the user_guide of
      QE if you need to modify them or to check their
      default values.
     Generating pointlists ...
     new r_m :   0.3572 (alat units)  1.9312 (a.u.) for type    1

     Initial potential from superposition of free atoms

     starting charge       7.9996, renormalised to       8.0000
     Starting wfcs are   16 randomized atomic wfcs

     total cpu time spent up to now is        0.7 secs

     Self-consistent Calculation

     iteration #  1     ecut=    40.00 Ry     beta= 0.30
     Davidson diagonalization with overlap
     ethr =  1.00E-02,  avg # of iterations =  3.3

     total cpu time spent up to now is        1.8 secs

     total energy              =     -38.23594536 Ry
     estimated scf accuracy    <      67.85309856 Ry

     total magnetization       =     3.13 Bohr mag/cell
     absolute magnetization    =     3.14 Bohr mag/cell

     iteration #  2     ecut=    40.00 Ry     beta= 0.30
     Davidson diagonalization with overlap
     ethr =  1.00E-02,  avg # of iterations =  1.0

     negative rho (up,down):  7.643E-06 3.985E-05

     total cpu time spent up to now is        2.6 secs

     total energy              =     -38.45512154 Ry
     estimated scf accuracy    <      47.26067555 Ry

     total magnetization       =     3.13 Bohr mag/cell
     absolute magnetization    =     3.21 Bohr mag/cell

     iteration #  3     ecut=    40.00 Ry     beta= 0.30
     Davidson diagonalization with overlap
     ethr =  1.00E-02,  avg # of iterations =  1.2

     total cpu time spent up to now is        3.3 secs

     total energy              =     -38.51952586 Ry
     estimated scf accuracy    <      54.29763183 Ry

     total magnetization       =     3.42 Bohr mag/cell
     absolute magnetization    =     3.82 Bohr mag/cell

     iteration #  4     ecut=    40.00 Ry     beta= 0.30
     Davidson diagonalization with overlap
     ethr =  1.00E-02,  avg # of iterations =  1.0

     negative rho (up,down):  0.000E+00 3.990E-07

     total cpu time spent up to now is        4.1 secs

     total energy              =     -38.53499974 Ry
     estimated scf accuracy    <       0.44927524 Ry

     total magnetization       =     3.26 Bohr mag/cell
     absolute magnetization    =     3.56 Bohr mag/cell

     iteration #  5     ecut=    40.00 Ry     beta= 0.30
     Davidson diagonalization with overlap
     ethr =  5.62E-03,  avg # of iterations =  1.2

     negative rho (up,down):  0.000E+00 2.297E-07

     total cpu time spent up to now is        4.9 secs

     total energy              =     -38.54271957 Ry
     estimated scf accuracy    <       5.41496067 Ry

     total magnetization       =     3.38 Bohr mag/cell
     absolute magnetization    =     3.73 Bohr mag/cell

     iteration #  6     ecut=    40.00 Ry     beta= 0.30
     Davidson diagonalization with overlap
     ethr =  5.62E-03,  avg # of iterations =  1.0

     negative rho (up,down):  0.000E+00 2.817E-07

     total cpu time spent up to now is        5.7 secs

     total energy              =     -38.54303321 Ry
     estimated scf accuracy    <       1.81055159 Ry

     total magnetization       =     3.38 Bohr mag/cell
     absolute magnetization    =     3.73 Bohr mag/cell

     iteration #  7     ecut=    40.00 Ry     beta= 0.30
     Davidson diagonalization with overlap
     ethr =  5.62E-03,  avg # of iterations =  1.0

     negative rho (up,down):  0.000E+00 2.029E-07

     total cpu time spent up to now is        6.4 secs

     total energy              =     -38.54269159 Ry
     estimated scf accuracy    <       0.37242343 Ry

     total magnetization       =     3.38 Bohr mag/cell
     absolute magnetization    =     3.75 Bohr mag/cell

     iteration #  8     ecut=    40.00 Ry     beta= 0.30
     Davidson diagonalization with overlap
     ethr =  4.66E-03,  avg # of iterations =  1.0

     negative rho (up,down):  0.000E+00 4.620E-08

     total cpu time spent up to now is        7.2 secs

     total energy              =     -38.54266055 Ry
     estimated scf accuracy    <       0.10386358 Ry

     total magnetization       =     3.38 Bohr mag/cell
     absolute magnetization    =     3.75 Bohr mag/cell

     iteration #  9     ecut=    40.00 Ry     beta= 0.30
     Davidson diagonalization with overlap
     ethr =  1.30E-03,  avg # of iterations =  1.0

     negative rho (up,down):  0.000E+00 3.525E-08

     total cpu time spent up to now is        8.0 secs

     total energy              =     -38.54269411 Ry
     estimated scf accuracy    <       0.02409473 Ry

     total magnetization       =     3.38 Bohr mag/cell
     absolute magnetization    =     3.76 Bohr mag/cell

     iteration # 10     ecut=    40.00 Ry     beta= 0.30
     Davidson diagonalization with overlap
     ethr =  3.01E-04,  avg # of iterations =  1.0

     negative rho (up,down):  0.000E+00 1.407E-08

     total cpu time spent up to now is        8.9 secs

     total energy              =     -38.54271353 Ry
     estimated scf accuracy    <       0.01383578 Ry

     total magnetization       =     3.38 Bohr mag/cell
     absolute magnetization    =     3.76 Bohr mag/cell

     iteration # 11     ecut=    40.00 Ry     beta= 0.30
     Davidson diagonalization with overlap
     ethr =  1.73E-04,  avg # of iterations =  1.0

     total cpu time spent up to now is        9.8 secs

     total energy              =     -38.54267778 Ry
     estimated scf accuracy    <       0.01471425 Ry

     total magnetization       =     3.38 Bohr mag/cell
     absolute magnetization    =     3.76 Bohr mag/cell

     iteration # 12     ecut=    40.00 Ry     beta= 0.30
     Davidson diagonalization with overlap
     ethr =  1.73E-04,  avg # of iterations =  1.0

     total cpu time spent up to now is       10.9 secs

     total energy              =     -38.54270117 Ry
     estimated scf accuracy    <       0.00016174 Ry

     total magnetization       =     3.38 Bohr mag/cell
     absolute magnetization    =     3.76 Bohr mag/cell

     iteration # 13     ecut=    40.00 Ry     beta= 0.30
     Davidson diagonalization with overlap
     ethr =  2.02E-06,  avg # of iterations =  1.5

     total cpu time spent up to now is       11.7 secs

     total energy              =     -38.54270172 Ry
     estimated scf accuracy    <       0.00020034 Ry

     total magnetization       =     3.38 Bohr mag/cell
     absolute magnetization    =     3.76 Bohr mag/cell

     iteration # 14     ecut=    40.00 Ry     beta= 0.30
     Davidson diagonalization with overlap
     ethr =  2.02E-06,  avg # of iterations =  1.0

     total cpu time spent up to now is       12.5 secs

     total energy              =     -38.54270247 Ry
     estimated scf accuracy    <       0.00000618 Ry

     total magnetization       =     3.38 Bohr mag/cell
     absolute magnetization    =     3.76 Bohr mag/cell

     iteration # 15     ecut=    40.00 Ry     beta= 0.30
     Davidson diagonalization with overlap
     ethr =  7.73E-08,  avg # of iterations =  1.0

     total cpu time spent up to now is       13.3 secs

     total energy              =     -38.54270236 Ry
     estimated scf accuracy    <       0.00000418 Ry

     total magnetization       =     3.38 Bohr mag/cell
     absolute magnetization    =     3.76 Bohr mag/cell

     iteration # 16     ecut=    40.00 Ry     beta= 0.30
     Davidson diagonalization with overlap
     ethr =  5.23E-08,  avg # of iterations =  1.0

     total cpu time spent up to now is       14.0 secs

     total energy              =     -38.54270246 Ry
     estimated scf accuracy    <       0.00000018 Ry

     total magnetization       =     3.38 Bohr mag/cell
     absolute magnetization    =     3.76 Bohr mag/cell

     iteration # 17     ecut=    40.00 Ry     beta= 0.30
     Davidson diagonalization with overlap
     ethr =  2.27E-09,  avg # of iterations =  1.5

     Magnetic moment per site  (integrated on atomic sphere of radius R)
     atom   1 (R=0.357)  charge=  6.2798  magn=  3.5591

     total cpu time spent up to now is       14.9 secs

     End of self-consistent calculation

     Number of k-points >= 100: set verbosity='high' to print the bands.

     the Fermi energy is    15.9218 ev

!    total energy              =     -38.54270248 Ry
     estimated scf accuracy    <          4.0E-09 Ry
     smearing contrib. (-TS)   =       0.00003728 Ry
     internal energy E=F+TS    =     -38.54273976 Ry

     The total energy is F=E-TS. E is the sum of the following terms:
     one-electron contribution =       7.73403317 Ry
     hartree contribution      =       4.82770939 Ry
     xc contribution           =      -8.02069749 Ry
     ewald contribution        =     -43.08378483 Ry

     total magnetization       =     3.38 Bohr mag/cell
     absolute magnetization    =     3.76 Bohr mag/cell

     convergence has been achieved in  17 iterations
     Writing meta-gga kinetic term

     Writing all to output data dir ./pwscf.save/
     Writing meta-gga kinetic term

     init_run     :      0.57s CPU      0.63s WALL (       1 calls)
     electrons    :     13.46s CPU     14.21s WALL (       1 calls)

     Called by init_run:
     wfcinit      :      0.54s CPU      0.59s WALL (       1 calls)
     potinit      :      0.01s CPU      0.01s WALL (       1 calls)
     hinit0       :      0.01s CPU      0.01s WALL (       1 calls)

     Called by electrons:
     c_bands      :     10.64s CPU     11.25s WALL (      17 calls)
     sum_band     :      2.58s CPU      2.70s WALL (      17 calls)
     v_of_rho     :      0.19s CPU      0.21s WALL (      18 calls)
     mix_rho      :      0.03s CPU      0.03s WALL (      17 calls)

     Called by c_bands:
     init_us_2    :      0.17s CPU      0.18s WALL (    5880 calls)
     init_us_2:cp :      0.17s CPU      0.18s WALL (    5880 calls)
     cegterg      :     10.43s CPU     11.04s WALL (    2856 calls)

     Called by *egterg:
     cdiaghg      :      0.36s CPU      0.39s WALL (    6343 calls)
     h_psi        :     10.23s CPU     10.83s WALL (    6511 calls)
     g_psi        :      0.01s CPU      0.01s WALL (    3487 calls)

     Called by h_psi:
     h_psi:calbec :      0.11s CPU      0.12s WALL (    6511 calls)
     vloc_psi     :      2.52s CPU      2.67s WALL (    6511 calls)
     add_vuspsi   :      0.07s CPU      0.07s WALL (    6511 calls)
     h_psi_meta   :      7.49s CPU      7.93s WALL (    6511 calls)

     General routines
     calbec       :      0.11s CPU      0.11s WALL (    6511 calls)
     fft          :      0.08s CPU      0.08s WALL (     543 calls)
     ffts         :      0.01s CPU      0.01s WALL (     140 calls)
     fftw         :     11.36s CPU     12.00s WALL (  493712 calls)
     interpolate  :      0.01s CPU      0.02s WALL (      72 calls)

     Parallel routines

     PWSCF        :     14.07s CPU     14.90s WALL


   This run was terminated on:  12:38:26   3Dec2021            

=------------------------------------------------------------------------------=
   JOB DONE.
=------------------------------------------------------------------------------=
