
     Program PWSCF v.7.5 starts on  2Jul2025 at 10:36: 6 

     This program is part of the open-source Quantum ESPRESSO suite
     for quantum simulation of materials; please cite
         "P. Giannozzi et al., J. Phys.:Condens. Matter 21 395502 (2009);
         "P. Giannozzi et al., J. Phys.:Condens. Matter 29 465901 (2017);
         "P. Giannozzi et al., J. Chem. Phys. 152 154105 (2020);
          URL http://www.quantum-espresso.org", 
     in publications or presentations arising from this work. More details at
     http://www.quantum-espresso.org/quote

     Parallel version (MPI), running on     4 processors

     MPI processes distributed on     1 nodes
     2480 MiB available memory on the printing compute node when the environment starts

     Reading input from metaGGA-2.in

     Current dimensions of program PWSCF are:
     Max number of different atomic species (ntypx) = 10
     Max number of k-points (npk) =  40000
     Max angular momentum in pseudopotentials (lmaxx) =  4

     WARNING: the MGGA functional with ID    1 has been 
     read together with other dft terms, but it should 
     stand alone in order to work properly. The other 
     terms will be ignored.

     WARNING: the MGGA functional with ID    1 has been 
     read together with other dft terms, but it should 
     stand alone in order to work properly. The other 
     terms will be ignored.

     Atomic positions and unit cell read from directory:
     ./pwscf.save/


     R & G space division:  proc/nbgrp/npool/nimage =       4
     Subspace diagonalization in iterative solution of the eigenvalue problem:
     a serial algorithm will be used


     Parallelization info
     --------------------
     sticks:   dense  smooth     PW     G-vecs:    dense   smooth      PW
     Min         151     151     44                 2840     2840     434
     Max         153     153     45                 2841     2841     437
     Sum         609     609    177                11363    11363    1743

     Using Slab Decomposition



     bravais-lattice index     =            1
     lattice parameter (alat)  =       8.0000  a.u.
     unit-cell volume          =     512.0000 (a.u.)^3
     number of atoms/cell      =           10
     number of atomic types    =            2
     number of electrons       =        22.00
     number of Kohn-Sham states=           11
     kinetic-energy cutoff     =      30.0000  Ry
     charge density cutoff     =     120.0000  Ry
     Exchange-correlation= SLA  PW   TPSS TPSS
                           (   0   0   0   0   0   1   0)

     celldm(1)=   8.000000  celldm(2)=   0.000000  celldm(3)=   0.000000
     celldm(4)=   0.000000  celldm(5)=   0.000000  celldm(6)=   0.000000

     crystal axes: (cart. coord. in units of alat)
               a(1) = (   1.000000   0.000000   0.000000 )  
               a(2) = (   0.000000   1.000000   0.000000 )  
               a(3) = (   0.000000   0.000000   1.000000 )  

     reciprocal axes: (cart. coord. in units 2 pi/alat)
               b(1) = (  1.000000  0.000000  0.000000 )  
               b(2) = (  0.000000  1.000000  0.000000 )  
               b(3) = (  0.000000  0.000000  1.000000 )  


     PseudoPot. # 1 for H  read from file:
     /home/pdelugas/q-e/test-suite/..//pseudo/H.tpss-mt.UPF
     MD5 check sum: b03f069151862bdfc6fb24f3d69d0372
     Pseudo is Norm-conserving, Zval =  1.0
     Generated by new atomic code, or converted to UPF format
     Using radial grid of 1263 points,  0 beta functions with: 

     PseudoPot. # 2 for C  read from file:
     /home/pdelugas/q-e/test-suite/..//pseudo/C.tpss-mt.UPF
     MD5 check sum: 68b115332e3ceaab003e373b9a857322
     Pseudo is Norm-conserving, Zval =  4.0
     Generated by new atomic code, or converted to UPF format
     Using radial grid of 1983 points,  1 beta functions with: 
                l(1) =   0

     atomic species   valence    mass     pseudopotential
     H                 1.00     1.00783     H ( 1.00)
     C                 4.00    12.00000     C ( 1.00)

     No symmetry found



   Cartesian axes

     site n.     atom                  positions (alat units)
         1        H      tau(   1) = (  -0.3396188  -0.3072775   0.2952175  )
         2        H      tau(   2) = (  -0.3641150   0.3114112   0.1191170  )
         3        H      tau(   3) = (   0.2545363  -0.3380175  -0.1311087  )
         4        H      tau(   4) = (   0.3886387  -0.2037337   0.2366638  )
         5        H      tau(   5) = (   0.3060188   0.3298075   0.0415838  )
         6        H      tau(   6) = (   0.1176044   0.2002337  -0.3229712  )
         7        C      tau(   7) = (  -0.1518812  -0.1636275   0.1645763  )
         8        C      tau(   8) = (  -0.1701575   0.1457675   0.1031486  )
         9        C      tau(   9) = (   0.1935900  -0.1791975   0.0638284  )
        10        C      tau(  10) = (   0.1368550   0.1713513  -0.0621193  )

     number of k points=     6
                       cart. coord. in units 2pi/alat
        k(    1) = (   0.0000000   0.0000000   0.0000000), wk =   0.3333333
        k(    2) = (   0.0000000   0.0000000   0.1000000), wk =   0.3333333
        k(    3) = (   0.0000000   0.0000000   0.2000000), wk =   0.3333333
        k(    4) = (   0.0000000   0.0000000   0.3000000), wk =   0.3333333
        k(    5) = (   0.0000000   0.0000000   0.4000000), wk =   0.3333333
        k(    6) = (   0.0000000   0.0000000   0.5000000), wk =   0.3333333

     Dense  grid:    11363 G-vectors     FFT dimensions: (  27,  27,  27)

     Estimated max dynamical RAM per process >       1.49 MB

     Estimated total dynamical RAM >       5.95 MB
     Reading meta-gga kinetic term

     The potential is recalculated from file :
     ./pwscf.save/charge-density

     Starting wfcs are   22 randomized atomic wfcs

     Band Structure Calculation
     Davidson diagonalization with overlap

     ethr =  4.55E-09,  avg # of iterations = 13.7

     total cpu time spent up to now is        1.2 secs

     End of band structure calculation

          k = 0.0000 0.0000 0.0000 (  1365 PWs)   bands (ev):

   -16.0449 -10.0094  -9.5482  -7.9883  -4.9925  -4.1306  -3.5497  -2.6548
    -1.4011  -1.1582   0.4469

          k = 0.0000 0.0000 0.1000 (  1390 PWs)   bands (ev):

   -16.0432 -10.0290  -9.5491  -7.9878  -5.0215  -4.1841  -3.5692  -2.6752
    -1.4118  -1.1282   0.4296

          k = 0.0000 0.0000 0.2000 (  1414 PWs)   bands (ev):

   -16.0275 -10.0702  -9.5390  -7.9766  -5.0822  -4.3044  -3.5883  -2.7079
    -1.4185  -1.0484   0.4166

          k = 0.0000 0.0000 0.3000 (  1422 PWs)   bands (ev):

   -16.0033 -10.1150  -9.5199  -7.9570  -5.1421  -4.4395  -3.5942  -2.7426
    -1.4212  -0.9752   0.4418

          k = 0.0000 0.0000 0.4000 (  1430 PWs)   bands (ev):

   -15.9835 -10.1542  -9.5061  -7.9377  -5.1865  -4.5469  -3.5859  -2.7757
    -1.4163  -0.9341   0.4469

          k = 0.0000 0.0000 0.5000 (  1422 PWs)   bands (ev):

   -15.9743 -10.1690  -9.4981  -7.9256  -5.1990  -4.5812  -3.5768  -2.7820
    -1.4080  -0.9151   0.4585

     Writing all to output data dir ./pwscf.save/ :
     XML data file, pseudopotentials, collected wavefunctions

     init_run     :      0.13s CPU      0.14s WALL (       1 calls)
     electrons    :      0.89s CPU      0.97s WALL (       1 calls)

     Called by init_run:
     wfcinit      :      0.00s CPU      0.00s WALL (       1 calls)
     potinit      :      0.01s CPU      0.01s WALL (       1 calls)
     hinit0       :      0.12s CPU      0.12s WALL (       1 calls)

     Called by electrons:
     c_bands      :      0.89s CPU      0.97s WALL (       1 calls)
     v_of_rho     :      0.01s CPU      0.01s WALL (       1 calls)

     Called by c_bands:
     init_us_2    :      0.00s CPU      0.00s WALL (       6 calls)
     cegterg      :      0.74s CPU      0.81s WALL (       6 calls)

     Called by *egterg:
     cdiaghg      :      0.01s CPU      0.01s WALL (      88 calls)
     h_psi        :      0.81s CPU      0.88s WALL (      94 calls)
     g_psi        :      0.01s CPU      0.01s WALL (      82 calls)

     Called by h_psi:
     h_psi:calbec :      0.00s CPU      0.00s WALL (      94 calls)
     vloc_psi     :      0.22s CPU      0.23s WALL (      94 calls)
                                        0.00s GPU  (      94 calls)
     add_vuspsi   :      0.00s CPU      0.00s WALL (      94 calls)
     h_psi_meta   :      0.58s CPU      0.64s WALL (      94 calls)

     General routines
     calbec       :      0.00s CPU      0.00s WALL (      94 calls)
     fft          :      0.05s CPU      0.05s WALL (      11 calls)
     fftw         :      0.67s CPU      0.73s WALL (    7520 calls)
     interpolate  :      0.00s CPU      0.00s WALL (       1 calls)
     davcio       :      0.00s CPU      0.00s WALL (      12 calls)

     Parallel routines

     PWSCF        :      1.09s CPU      1.18s WALL


   This run was terminated on:  10:36: 7   2Jul2025            

=------------------------------------------------------------------------------=
   JOB DONE.
=------------------------------------------------------------------------------=
