
     Program CP v.5.0.1 (svn rev. 9335) starts on 19Aug2012 at 17:23: 6 

     This program is part of the open-source Quantum ESPRESSO suite
     for quantum simulation of materials; please cite
         "P. Giannozzi et al., J. Phys.:Condens. Matter 21 395502 (2009);
          URL http://www.quantum-espresso.org", 
     in publications or presentations arising from this work. More details at
     http://www.quantum-espresso.org/quote.php

     Parallel version (MPI & OpenMP), running on      12 processor cores
     Number of MPI processes:                 1
     Threads/MPI process:                    12
     Reading input from /plx/userinternal/acv0/espresso/CPV/tests/h2o-mt-blyp.in2

   Job Title:  Water Molecule


   Atomic Pseudopotentials Parameters
   ----------------------------------

   Reading pseudopotential for specie #  1 from file :
   /plx/userinternal/acv0/espresso/pseudo/O.blyp-mt.UPF
   file type is UPF v.1

   Reading pseudopotential for specie #  2 from file :
   /plx/userinternal/acv0/espresso/pseudo/H.blyp-vbc.UPF
   file type is UPF v.1


   Main Simulation Parameters (from input)
   ---------------------------------------
   Restart Mode       =       1   restart        
   Number of MD Steps =      50
   Print out every           10 MD Steps
   Reads from unit    =      51
   Writes to unit     =      51
   MD Simulation time step            =       5.00
   Electronic fictitious mass (emass) =     400.00
   emass cut-off                      =       2.50

   Simulation Cell Parameters (from input)
   external pressure       =            0.00 [KBar]
   wmass (calculated)      =         2493.41 [AU]
   ibrav =   14
   alat  =    12.00000000
   a1    =    12.00000000    0.00000000    0.00000000
   a2    =     0.00000000   12.00000000    0.00000000
   a3    =     0.00000000    0.00000000   12.00000000
 
   b1    =     0.08333333    0.00000000    0.00000000
   b2    =     0.00000000    0.08333333    0.00000000
   b3    =     0.00000000    0.00000000    0.08333333
   omega =    1728.00000000

   Energy Cut-offs
   ---------------
   Ecutwfc =   80.0 Ry,      Ecutrho =  320.0 Ry,      Ecuts =  320.0 Ry
   Gcutwfc =   17.1     ,    Gcutrho =   34.2          Gcuts =   34.2
   NOTA BENE: refg, mmx =   0.050000  7680
   Eigenvalues calculated without the kinetic term contribution
   Orthog. with lagrange multipliers : eps =   0.10E-07,  max =  20
   verlet algorithm for electron dynamics
   with friction frice =  0.2000 , grease =  1.0000
   Electron dynamics : the temperature is not controlled

   Electronic states
   -----------------
   Number of Electron =     8, of States =     4
   Occupation numbers :
   2.00 2.00 2.00 2.00


   Exchange and correlations functionals
   -------------------------------------
   Using Local Density Approximation with
     Exchange functional: SLATER                                                      
     Correlation functional: LEE, YANG, AND PARR                                         
   Using Generalized Gradient Corrections with
     Exchange functional: BECKE                                                       
     Correlation functional: PERDEW AND WANG                                             
     Exchange-correlation      =  SLA  LYP  B88  BLYP ( 1 3 1 3 0)
     EXX-fraction              =        0.00


   Ions Simulation Parameters
   --------------------------
   Ions are not allowed to move
   Initial random displacement of ionic coordinates
    specie  amplitude
         2   0.200000
   Ionic position (from input)
   sorted by specie, and converted to real a.u. coordinates
   Species   1 atoms =    1 mass =     29166.22 (a.u.),        16.00 (amu) rcmax =   0.80 (a.u.)
        0.009900     0.009900     0.000000
   Species   2 atoms =    2 mass =      1822.89 (a.u.),         1.00 (amu) rcmax =   0.80 (a.u.)
        1.832500    -0.224300    -0.000100
       -0.224300     1.832500     0.000200
   Ionic position will be re-read from restart file


   Cell Dynamics Parameters (from STDIN)
   -------------------------------------
   internal stress tensor calculated
   Starting cell generated from CELLDM
   Cell parameters will be re-read from restart file
   Constant VOLUME Molecular dynamics
   cell parameters are not allowed to move

   Verbosity: iverbosity =  1



   Simulation dimensions initialization
   ------------------------------------

   unit vectors of full simulation cell
   in real space:                         in reciprocal space (units 2pi/alat):
   1    12.0000    0.0000    0.0000              1.0000    0.0000    0.0000
   2     0.0000   12.0000    0.0000              0.0000    1.0000    0.0000
   3     0.0000    0.0000   12.0000              0.0000    0.0000    1.0000
 
     G-vector sticks info
     --------------------
     sticks:   dense  smooth     PW     G-vecs:    dense   smooth      PW
     Sum        3673    3673    917               167037   167037   20815
     Tot        1837    1837    459
 
 
   Real Mesh
   ---------
   Global Dimensions   Local  Dimensions   Processor Grid
   .X.   .Y.   .Z.     .X.   .Y.   .Z.     .X.   .Y.   .Z.
    72    72    72      72    72    72       1     1     1
   Array leading dimensions ( nr1x, nr2x, nr3x )   =     72    72    72
   Local number of cell to store the grid ( nrxx ) =     373248
   Number of x-y planes for each processors: 
   nr3l =    72
 
   Smooth Real Mesh
   ----------------
   Global Dimensions   Local  Dimensions   Processor Grid
   .X.   .Y.   .Z.     .X.   .Y.   .Z.     .X.   .Y.   .Z.
    72    72    72      72    72    72       1     1     1
   Array leading dimensions ( nr1x, nr2x, nr3x )   =     72    72    72
   Local number of cell to store the grid ( nrxx ) =     373248
   Number of x-y planes for each processors: 
   nr3sl =    72
 
   Reciprocal Space Mesh
   ---------------------
   Large Mesh
     Global(ngm_g)    MinLocal       MaxLocal      Average
          83519          83519          83519       83519.00
   Smooth Mesh
     Global(ngms_g)   MinLocal       MaxLocal      Average
          83519          83519          83519       83519.00
   Wave function Mesh
     Global(ngw_g)    MinLocal       MaxLocal      Average
          10408          10408          10408       10408.00


   System geometry initialization
   ------------------------------
   ibrav =   14       cell parameters 

      12.00000       0.00000       0.00000
       0.00000      12.00000       0.00000
       0.00000       0.00000      12.00000
 

   Matrix Multiplication Performances
   ortho mmul, time for parallel driver      =   0.00000 with    1 procs

   Constraints matrixes will be distributed block like on
   ortho sub-group =    1*   1 procs



   Pseudopotentials initialization
   -------------------------------


   Common initialization

   Specie:     1
   1  indv=  1   ang. mom=  0
 
                        dion 
   0.2253

   Specie:     2
 
                        dion 
 
   Short Legend and Physical Units in the Output
   ---------------------------------------------
   NFI    [int]          - step index
   EKINC  [HARTREE A.U.] - kinetic energy of the fictitious electronic dynamics
   TEMPH  [K]            - Temperature of the fictitious cell dynamics
   TEMP   [K]            - Ionic temperature
   ETOT   [HARTREE A.U.] - Scf total energy (Kohn-Sham hamiltonian)
   ENTHAL [HARTREE A.U.] - Enthalpy ( ETOT + P * V )
   ECONS  [HARTREE A.U.] - Enthalpy + kinetic energy of ions and cell
   ECONT  [HARTREE A.U.] - Constant of motion for the CP lagrangian
 

   reading restart file: /plx/userinternal/acv0/espresso/CPV/tmp//h2o_51.save
   restart file read in    0.020 sec.



   Randomization of SCALED ionic coordinates
   Species   2 atoms =    2
        Old Positions               New Positions
     0.152708 -0.018692 -0.000008    0.145814 -0.026230  0.008111
    -0.018692  0.152708  0.000017   -0.015180  0.151227 -0.004431

   formf: eself=    18.94976
   formf:     vps(g=0)=  -0.0063239     rhops(g=0)=  -0.0034722
   formf: sum_g vps(g)=  -4.3546661 sum_g rhops(g)=  -1.0540044
   formf:     vps(g=0)=  -0.0011896     rhops(g=0)=  -0.0005787
   formf: sum_g vps(g)=  -2.5239226 sum_g rhops(g)=  -0.1756674
   Delta V(G=0):   0.009308Ry,    0.253295eV
 
  nfi    ekinc  temph  tempp           etot         enthal          econs          econt    vnhh   xnhh0    vnhp   xnhp0
  101  0.00069    0.0    0.0      -17.16163      -17.16163      -17.16163      -17.16093  0.0000  0.0000  0.0000  0.0000
  102  0.00237    0.0    0.0      -17.16476      -17.16476      -17.16476      -17.16240  0.0000  0.0000  0.0000  0.0000
  103  0.00381    0.0    0.0      -17.16892      -17.16892      -17.16892      -17.16511  0.0000  0.0000  0.0000  0.0000
  104  0.00413    0.0    0.0      -17.17256      -17.17256      -17.17256      -17.16842  0.0000  0.0000  0.0000  0.0000
  105  0.00352    0.0    0.0      -17.17504      -17.17504      -17.17504      -17.17151  0.0000  0.0000  0.0000  0.0000
  106  0.00250    0.0    0.0      -17.17639      -17.17639      -17.17639      -17.17389  0.0000  0.0000  0.0000  0.0000
  107  0.00151    0.0    0.0      -17.17695      -17.17695      -17.17695      -17.17543  0.0000  0.0000  0.0000  0.0000
  108  0.00079    0.0    0.0      -17.17709      -17.17709      -17.17709      -17.17631  0.0000  0.0000  0.0000  0.0000
  109  0.00036    0.0    0.0      -17.17709      -17.17709      -17.17709      -17.17673  0.0000  0.0000  0.0000  0.0000
  110  0.00016    0.0    0.0      -17.17708      -17.17708      -17.17708      -17.17693  0.0000  0.0000  0.0000  0.0000
  111  0.00009    0.0    0.0      -17.17711      -17.17711      -17.17711      -17.17702  0.0000  0.0000  0.0000  0.0000
  112  0.00007    0.0    0.0      -17.17716      -17.17716      -17.17716      -17.17708  0.0000  0.0000  0.0000  0.0000
  113  0.00008    0.0    0.0      -17.17722      -17.17722      -17.17722      -17.17715  0.0000  0.0000  0.0000  0.0000
  114  0.00007    0.0    0.0      -17.17728      -17.17728      -17.17728      -17.17721  0.0000  0.0000  0.0000  0.0000
  115  0.00006    0.0    0.0      -17.17732      -17.17732      -17.17732      -17.17726  0.0000  0.0000  0.0000  0.0000
  116  0.00005    0.0    0.0      -17.17735      -17.17735      -17.17735      -17.17730  0.0000  0.0000  0.0000  0.0000
  117  0.00003    0.0    0.0      -17.17736      -17.17736      -17.17736      -17.17733  0.0000  0.0000  0.0000  0.0000
  118  0.00002    0.0    0.0      -17.17737      -17.17737      -17.17737      -17.17735  0.0000  0.0000  0.0000  0.0000
  119  0.00001    0.0    0.0      -17.17738      -17.17738      -17.17738      -17.17736  0.0000  0.0000  0.0000  0.0000
  120  0.00001    0.0    0.0      -17.17738      -17.17738      -17.17738      -17.17737  0.0000  0.0000  0.0000  0.0000
  121  0.00000    0.0    0.0      -17.17738      -17.17738      -17.17738      -17.17738  0.0000  0.0000  0.0000  0.0000
  122  0.00000    0.0    0.0      -17.17738      -17.17738      -17.17738      -17.17738  0.0000  0.0000  0.0000  0.0000
  123  0.00000    0.0    0.0      -17.17738      -17.17738      -17.17738      -17.17738  0.0000  0.0000  0.0000  0.0000
  124  0.00000    0.0    0.0      -17.17739      -17.17739      -17.17739      -17.17738  0.0000  0.0000  0.0000  0.0000
  125  0.00000    0.0    0.0      -17.17739      -17.17739      -17.17739      -17.17739  0.0000  0.0000  0.0000  0.0000
  126  0.00000    0.0    0.0      -17.17739      -17.17739      -17.17739      -17.17739  0.0000  0.0000  0.0000  0.0000
  127  0.00000    0.0    0.0      -17.17739      -17.17739      -17.17739      -17.17739  0.0000  0.0000  0.0000  0.0000
  128  0.00000    0.0    0.0      -17.17739      -17.17739      -17.17739      -17.17739  0.0000  0.0000  0.0000  0.0000
  129  0.00000    0.0    0.0      -17.17739      -17.17739      -17.17739      -17.17739  0.0000  0.0000  0.0000  0.0000

   MAIN:          EKINC   (thr)          DETOT   (thr)       MAXFORCE   (thr)
   MAIN:   0.782398D-06  0.1D-05  0.473523D-06  0.1D-03  0.000000D+00  0.1D+11
   MAIN: convergence achieved for system relaxation

 * Physical Quantities at step:   130


                total energy =      -17.17739 Hartree a.u.
              kinetic energy =       12.68386 Hartree a.u.
        electrostatic energy =      -18.17160 Hartree a.u.
                         esr =        0.16727 Hartree a.u.
                       eself =       18.94976 Hartree a.u.
      pseudopotential energy =       -9.41189 Hartree a.u.
  n-l pseudopotential energy =        1.94615 Hartree a.u.
 exchange-correlation energy =       -4.22392 Hartree a.u.
           average potential =        0.00000 Hartree a.u.



   Eigenvalues (eV), kp =   1 , spin =  1

  -24.96  -13.03   -8.87   -6.95
 
   Allocated memory (kb) =     87464
 
   CELL_PARAMETERS
   12.00000000    0.00000000    0.00000000
    0.00000000   12.00000000    0.00000000
    0.00000000    0.00000000   12.00000000

   System Density [g/cm^3] :     0.1167


   Center of mass square displacement (a.u.):   0.000047

   Total stress (GPa)
        0.78607755        -0.13971237         0.05311147
       -0.13971237         0.10488284        -0.01446226
        0.05311147        -0.01446226        -0.08188289
   ATOMIC_POSITIONS
   O    0.990000E-02  0.990000E-02  0.000000E+00
   H    0.174976E+01 -0.314765E+00  0.973267E-01
   H   -0.182164E+00  0.181472E+01 -0.531703E-01
 
   ATOMIC_VELOCITIES
   O    0.000000E+00  0.000000E+00  0.000000E+00
   H    0.000000E+00  0.000000E+00  0.000000E+00
   H    0.000000E+00  0.000000E+00  0.000000E+00
 
   Forces acting on atoms (au):
   O   -0.319249E-01 -0.264361E-02 -0.154936E-02
   H    0.315975E-01 -0.393431E-02  0.168444E-02
   H    0.109990E-02  0.710114E-02 -0.595836E-04
 


   Partial temperatures (for each ionic specie) 
   Species  Temp (K)   Mean Square Displacement (a.u.)
        1       0.00     0.0000
        2       0.00     0.0139
  130  0.00000    0.0    0.0      -17.17739      -17.17739      -17.17739      -17.17739  0.0000  0.0000  0.0000  0.0000

   MAIN:          EKINC   (thr)          DETOT   (thr)       MAXFORCE   (thr)
   MAIN:   0.596453D-06  0.1D-05  0.367300D-06  0.1D-03  0.000000D+00  0.1D+11
   MAIN: convergence achieved for system relaxation

   writing restart file: /plx/userinternal/acv0/espresso/CPV/tmp//h2o_51.save
   restart file written in    0.060 sec.



   Averaged Physical Quantities
                      accomulated      this run
   ekinc         :        0.34390       0.00068 (AU)
   ekin          :       11.61642      12.67083 (AU)
   epot          :      -29.06186     -31.79768 (AU)
   total energy  :      -15.32778     -17.17581 (AU)
   temperature   :        0.00000       0.00000 (K )
   enthalpy      :      -15.32778     -17.17581 (AU)
   econs         :      -15.32778     -17.17581 (AU)
   pressure      :        5.61068       0.24979 (Gpa)
   volume        :     1728.00000    1728.00000 (AU)


     initialize   :      1.12s CPU      0.15s WALL (       1 calls)
     main_loop    :     70.49s CPU      6.33s WALL (      30 calls)

     Called by main_loop:
     move_electro :     69.22s CPU      6.22s WALL (      30 calls)
     ortho        :      0.28s CPU      0.02s WALL (      30 calls)
     updatc       :      0.02s CPU      0.00s WALL (      30 calls)
     strucf       :      0.00s CPU      0.00s WALL (       1 calls)
     calbec       :      0.05s CPU      0.00s WALL (      31 calls)

     Called by move_electrons:
     rhoofr       :     12.60s CPU      1.10s WALL (      30 calls)
     vofrho       :     50.40s CPU      4.58s WALL (      30 calls)
     dforce       :      5.44s CPU      0.48s WALL (      60 calls)
     calphi       :      0.07s CPU      0.01s WALL (      30 calls)
     nlfl         :      0.00s CPU      0.00s WALL (      30 calls)

     Called by ortho:
     ortho_iter   :      0.01s CPU      0.00s WALL (      30 calls)
     rsg          :      0.08s CPU      0.01s WALL (      30 calls)
     rhoset       :      0.11s CPU      0.01s WALL (      30 calls)
     sigset       :      0.05s CPU      0.00s WALL (      30 calls)
     tauset       :      0.03s CPU      0.00s WALL (      30 calls)

     Small boxes:

     Low-level routines:
     prefor       :      0.01s CPU      0.00s WALL (      31 calls)
     nlfq         :      0.16s CPU      0.02s WALL (      30 calls)
     nlsm1        :      0.05s CPU      0.00s WALL (      31 calls)
     nlsm2        :      0.15s CPU      0.02s WALL (      30 calls)
     fft          :     17.50s CPU      1.52s WALL (     240 calls)
     ffts         :      4.36s CPU      0.38s WALL (      60 calls)
     fftw         :      6.10s CPU      0.51s WALL (     180 calls)
     fft_scatter  :      9.70s CPU      0.84s WALL (     480 calls)
     betagx       :      0.29s CPU      0.03s WALL (       1 calls)
     qradx        :      0.00s CPU      0.00s WALL (       1 calls)
     nlinit       :      0.43s CPU      0.04s WALL (       1 calls)
     init_dim     :      0.03s CPU      0.04s WALL (       1 calls)
     newnlinit    :      0.02s CPU      0.00s WALL (       1 calls)
     from_restart :      0.38s CPU      0.03s WALL (       1 calls)
     ortho_iter   :      0.01s CPU      0.00s WALL (      30 calls)
 
 
     CP           :  1m12.09s CPU     0m 6.55s WALL

 
   This run was terminated on:  17:23:13  19Aug2012            

=------------------------------------------------------------------------------=
   JOB DONE.
=------------------------------------------------------------------------------=
