
     Program CP v.5.0.1 (svn rev. 9335) starts on 19Aug2012 at 17:23:55 

     This program is part of the open-source Quantum ESPRESSO suite
     for quantum simulation of materials; please cite
         "P. Giannozzi et al., J. Phys.:Condens. Matter 21 395502 (2009);
          URL http://www.quantum-espresso.org", 
     in publications or presentations arising from this work. More details at
     http://www.quantum-espresso.org/quote.php

     Parallel version (MPI & OpenMP), running on      12 processor cores
     Number of MPI processes:                 1
     Threads/MPI process:                    12
     Reading input from /plx/userinternal/acv0/espresso/CPV/tests/h2o-mt-blyp.in4

   Job Title:  Water Molecule


   Atomic Pseudopotentials Parameters
   ----------------------------------

   Reading pseudopotential for specie #  1 from file :
   /plx/userinternal/acv0/espresso/pseudo/O.blyp-mt.UPF
   file type is UPF v.1

   Reading pseudopotential for specie #  2 from file :
   /plx/userinternal/acv0/espresso/pseudo/H.blyp-vbc.UPF
   file type is UPF v.1


   Main Simulation Parameters (from input)
   ---------------------------------------
   Restart Mode       =       1   restart        
   Number of MD Steps =     200
   Print out every          100 MD Steps
   Reads from unit    =      51
   Writes to unit     =      51
   MD Simulation time step            =       5.00
   Electronic fictitious mass (emass) =     400.00
   emass cut-off                      =       2.50

   Simulation Cell Parameters (from input)
   external pressure       =            0.00 [KBar]
   wmass (calculated)      =         2493.41 [AU]
   ibrav =   14
   alat  =    12.00000000
   a1    =    12.00000000    0.00000000    0.00000000
   a2    =     0.00000000   12.00000000    0.00000000
   a3    =     0.00000000    0.00000000   12.00000000
 
   b1    =     0.08333333    0.00000000    0.00000000
   b2    =     0.00000000    0.08333333    0.00000000
   b3    =     0.00000000    0.00000000    0.08333333
   omega =    1728.00000000

   Energy Cut-offs
   ---------------
   Ecutwfc =   80.0 Ry,      Ecutrho =  320.0 Ry,      Ecuts =  320.0 Ry
   Gcutwfc =   17.1     ,    Gcutrho =   34.2          Gcuts =   34.2
   NOTA BENE: refg, mmx =   0.050000  7680
   Eigenvalues calculated without the kinetic term contribution
   Orthog. with lagrange multipliers : eps =   0.10E-07,  max =  20
   Electron dynamics with newton equations
   Electron dynamics : the temperature is not controlled

   Electronic states
   -----------------
   Number of Electron =     8, of States =     4
   Occupation numbers :
   2.00 2.00 2.00 2.00


   Exchange and correlations functionals
   -------------------------------------
   Using Local Density Approximation with
     Exchange functional: SLATER                                                      
     Correlation functional: LEE, YANG, AND PARR                                         
   Using Generalized Gradient Corrections with
     Exchange functional: BECKE                                                       
     Correlation functional: PERDEW AND WANG                                             
     Exchange-correlation      =  SLA  LYP  B88  BLYP ( 1 3 1 3 0)
     EXX-fraction              =        0.00


   Ions Simulation Parameters
   --------------------------
   Ions are allowed to move
   Ions dynamics with newton equations
   the temperature is computed for     6 degrees of freedom
   ion dynamics with fricp =  0.0000 and greasp =  1.0000
   Ionic position (from input)
   sorted by specie, and converted to real a.u. coordinates
   Species   1 atoms =    1 mass =     29166.22 (a.u.),        16.00 (amu) rcmax =   0.80 (a.u.)
        0.009900     0.009900     0.000000
   Species   2 atoms =    2 mass =      1822.89 (a.u.),         1.00 (amu) rcmax =   0.80 (a.u.)
        1.832500    -0.224300    -0.000100
       -0.224300     1.832500     0.000200
   Ionic position will be re-read from restart file

   NOT all atoms are allowed to move 
    indx  ..x.. ..y.. ..z..
      1     F     F     F
   Ionic temperature is not controlled


   Cell Dynamics Parameters (from STDIN)
   -------------------------------------
   internal stress tensor calculated
   Starting cell generated from CELLDM
   Cell parameters will be re-read from restart file
   Constant VOLUME Molecular dynamics
   cell parameters are not allowed to move

   Verbosity: iverbosity =  1



   Simulation dimensions initialization
   ------------------------------------

   unit vectors of full simulation cell
   in real space:                         in reciprocal space (units 2pi/alat):
   1    12.0000    0.0000    0.0000              1.0000    0.0000    0.0000
   2     0.0000   12.0000    0.0000              0.0000    1.0000    0.0000
   3     0.0000    0.0000   12.0000              0.0000    0.0000    1.0000
 
     G-vector sticks info
     --------------------
     sticks:   dense  smooth     PW     G-vecs:    dense   smooth      PW
     Sum        3673    3673    917               167037   167037   20815
     Tot        1837    1837    459
 
 
   Real Mesh
   ---------
   Global Dimensions   Local  Dimensions   Processor Grid
   .X.   .Y.   .Z.     .X.   .Y.   .Z.     .X.   .Y.   .Z.
    72    72    72      72    72    72       1     1     1
   Array leading dimensions ( nr1x, nr2x, nr3x )   =     72    72    72
   Local number of cell to store the grid ( nrxx ) =     373248
   Number of x-y planes for each processors: 
   nr3l =    72
 
   Smooth Real Mesh
   ----------------
   Global Dimensions   Local  Dimensions   Processor Grid
   .X.   .Y.   .Z.     .X.   .Y.   .Z.     .X.   .Y.   .Z.
    72    72    72      72    72    72       1     1     1
   Array leading dimensions ( nr1x, nr2x, nr3x )   =     72    72    72
   Local number of cell to store the grid ( nrxx ) =     373248
   Number of x-y planes for each processors: 
   nr3sl =    72
 
   Reciprocal Space Mesh
   ---------------------
   Large Mesh
     Global(ngm_g)    MinLocal       MaxLocal      Average
          83519          83519          83519       83519.00
   Smooth Mesh
     Global(ngms_g)   MinLocal       MaxLocal      Average
          83519          83519          83519       83519.00
   Wave function Mesh
     Global(ngw_g)    MinLocal       MaxLocal      Average
          10408          10408          10408       10408.00


   System geometry initialization
   ------------------------------
   ibrav =   14       cell parameters 

      12.00000       0.00000       0.00000
       0.00000      12.00000       0.00000
       0.00000       0.00000      12.00000
 

   Matrix Multiplication Performances
   ortho mmul, time for parallel driver      =   0.00000 with    1 procs

   Constraints matrixes will be distributed block like on
   ortho sub-group =    1*   1 procs



   Pseudopotentials initialization
   -------------------------------


   Common initialization

   Specie:     1
   1  indv=  1   ang. mom=  0
 
                        dion 
   0.2253

   Specie:     2
 
                        dion 
 
   Short Legend and Physical Units in the Output
   ---------------------------------------------
   NFI    [int]          - step index
   EKINC  [HARTREE A.U.] - kinetic energy of the fictitious electronic dynamics
   TEMPH  [K]            - Temperature of the fictitious cell dynamics
   TEMP   [K]            - Ionic temperature
   ETOT   [HARTREE A.U.] - Scf total energy (Kohn-Sham hamiltonian)
   ENTHAL [HARTREE A.U.] - Enthalpy ( ETOT + P * V )
   ECONS  [HARTREE A.U.] - Enthalpy + kinetic energy of ions and cell
   ECONT  [HARTREE A.U.] - Constant of motion for the CP lagrangian
 

   reading restart file: /plx/userinternal/acv0/espresso/CPV/tmp//h2o_51.save
   restart file read in    0.020 sec.


   formf: eself=    18.94976
   formf:     vps(g=0)=  -0.0063239     rhops(g=0)=  -0.0034722
   formf: sum_g vps(g)=  -4.3546661 sum_g rhops(g)=  -1.0540044
   formf:     vps(g=0)=  -0.0011896     rhops(g=0)=  -0.0005787
   formf: sum_g vps(g)=  -2.5239226 sum_g rhops(g)=  -0.1756674
   Delta V(G=0):   0.009308Ry,    0.253295eV
 
  nfi    ekinc  temph  tempp           etot         enthal          econs          econt    vnhh   xnhh0    vnhp   xnhp0
  331  0.00004    0.0   16.5      -17.17760      -17.17760      -17.17743      -17.17739  0.0000  0.0000  0.0000  0.0000
  332  0.00003    0.0   12.7      -17.17755      -17.17755      -17.17742      -17.17739  0.0000  0.0000  0.0000  0.0000
  333  0.00002    0.0    9.4      -17.17751      -17.17751      -17.17742      -17.17739  0.0000  0.0000  0.0000  0.0000
  334  0.00002    0.0    6.8      -17.17748      -17.17748      -17.17741      -17.17739  0.0000  0.0000  0.0000  0.0000
  335  0.00002    0.0    4.8      -17.17746      -17.17746      -17.17741      -17.17739  0.0000  0.0000  0.0000  0.0000
  336  0.00002    0.0    3.6      -17.17745      -17.17745      -17.17741      -17.17739  0.0000  0.0000  0.0000  0.0000
  337  0.00002    0.0    3.1      -17.17744      -17.17744      -17.17741      -17.17739  0.0000  0.0000  0.0000  0.0000
  338  0.00002    0.0    3.5      -17.17745      -17.17745      -17.17741      -17.17739  0.0000  0.0000  0.0000  0.0000
  339  0.00002    0.0    4.8      -17.17746      -17.17746      -17.17741      -17.17739  0.0000  0.0000  0.0000  0.0000
  340  0.00002    0.0    6.8      -17.17748      -17.17748      -17.17741      -17.17739  0.0000  0.0000  0.0000  0.0000
  341  0.00002    0.0    9.6      -17.17751      -17.17751      -17.17742      -17.17739  0.0000  0.0000  0.0000  0.0000
  342  0.00003    0.0   13.2      -17.17755      -17.17755      -17.17742      -17.17739  0.0000  0.0000  0.0000  0.0000
  343  0.00003    0.0   17.4      -17.17760      -17.17760      -17.17743      -17.17739  0.0000  0.0000  0.0000  0.0000
  344  0.00004    0.0   22.1      -17.17765      -17.17765      -17.17743      -17.17739  0.0000  0.0000  0.0000  0.0000
  345  0.00005    0.0   27.3      -17.17770      -17.17770      -17.17744      -17.17739  0.0000  0.0000  0.0000  0.0000
  346  0.00005    0.0   32.9      -17.17777      -17.17777      -17.17745      -17.17739  0.0000  0.0000  0.0000  0.0000
  347  0.00006    0.0   38.6      -17.17783      -17.17783      -17.17746      -17.17739  0.0000  0.0000  0.0000  0.0000
  348  0.00007    0.0   44.6      -17.17790      -17.17790      -17.17747      -17.17739  0.0000  0.0000  0.0000  0.0000
  349  0.00009    0.0   50.5      -17.17797      -17.17797      -17.17748      -17.17739  0.0000  0.0000  0.0000  0.0000
  350  0.00010    0.0   56.5      -17.17804      -17.17804      -17.17749      -17.17739  0.0000  0.0000  0.0000  0.0000
  351  0.00011    0.0   62.3      -17.17811      -17.17811      -17.17750      -17.17739  0.0000  0.0000  0.0000  0.0000
  352  0.00012    0.0   67.8      -17.17817      -17.17817      -17.17751      -17.17739  0.0000  0.0000  0.0000  0.0000
  353  0.00012    0.0   73.0      -17.17823      -17.17823      -17.17752      -17.17739  0.0000  0.0000  0.0000  0.0000
  354  0.00013    0.0   77.7      -17.17828      -17.17828      -17.17752      -17.17739  0.0000  0.0000  0.0000  0.0000
  355  0.00014    0.0   81.9      -17.17832      -17.17832      -17.17753      -17.17739  0.0000  0.0000  0.0000  0.0000
  356  0.00014    0.0   85.3      -17.17836      -17.17836      -17.17753      -17.17739  0.0000  0.0000  0.0000  0.0000
  357  0.00014    0.0   87.8      -17.17839      -17.17839      -17.17753      -17.17739  0.0000  0.0000  0.0000  0.0000
  358  0.00014    0.0   89.4      -17.17840      -17.17840      -17.17754      -17.17739  0.0000  0.0000  0.0000  0.0000
  359  0.00014    0.0   90.1      -17.17841      -17.17841      -17.17754      -17.17739  0.0000  0.0000  0.0000  0.0000
  360  0.00014    0.0   89.7      -17.17841      -17.17841      -17.17754      -17.17739  0.0000  0.0000  0.0000  0.0000
  361  0.00014    0.0   88.2      -17.17839      -17.17839      -17.17754      -17.17739  0.0000  0.0000  0.0000  0.0000
  362  0.00014    0.0   85.8      -17.17836      -17.17836      -17.17753      -17.17739  0.0000  0.0000  0.0000  0.0000
  363  0.00014    0.0   82.6      -17.17833      -17.17833      -17.17753      -17.17739  0.0000  0.0000  0.0000  0.0000
  364  0.00014    0.0   78.5      -17.17829      -17.17829      -17.17753      -17.17739  0.0000  0.0000  0.0000  0.0000
  365  0.00013    0.0   73.8      -17.17824      -17.17824      -17.17752      -17.17739  0.0000  0.0000  0.0000  0.0000
  366  0.00013    0.0   68.6      -17.17818      -17.17818      -17.17752      -17.17739  0.0000  0.0000  0.0000  0.0000
  367  0.00012    0.0   63.1      -17.17812      -17.17812      -17.17751      -17.17739  0.0000  0.0000  0.0000  0.0000
  368  0.00011    0.0   57.3      -17.17805      -17.17805      -17.17750      -17.17739  0.0000  0.0000  0.0000  0.0000
  369  0.00010    0.0   51.5      -17.17799      -17.17799      -17.17749      -17.17739  0.0000  0.0000  0.0000  0.0000
  370  0.00009    0.0   45.6      -17.17792      -17.17792      -17.17748      -17.17739  0.0000  0.0000  0.0000  0.0000
  371  0.00008    0.0   39.9      -17.17785      -17.17785      -17.17747      -17.17739  0.0000  0.0000  0.0000  0.0000
  372  0.00006    0.0   34.3      -17.17778      -17.17778      -17.17745      -17.17739  0.0000  0.0000  0.0000  0.0000
  373  0.00005    0.0   29.2      -17.17772      -17.17772      -17.17744      -17.17739  0.0000  0.0000  0.0000  0.0000
  374  0.00004    0.0   24.4      -17.17767      -17.17767      -17.17743      -17.17739  0.0000  0.0000  0.0000  0.0000
  375  0.00004    0.0   20.3      -17.17762      -17.17762      -17.17743      -17.17739  0.0000  0.0000  0.0000  0.0000
  376  0.00003    0.0   16.8      -17.17758      -17.17758      -17.17742      -17.17739  0.0000  0.0000  0.0000  0.0000
  377  0.00002    0.0   14.1      -17.17755      -17.17755      -17.17741      -17.17739  0.0000  0.0000  0.0000  0.0000
  378  0.00002    0.0   12.3      -17.17753      -17.17753      -17.17741      -17.17739  0.0000  0.0000  0.0000  0.0000
  379  0.00002    0.0   11.5      -17.17753      -17.17753      -17.17741      -17.17739  0.0000  0.0000  0.0000  0.0000
  380  0.00002    0.0   11.7      -17.17753      -17.17753      -17.17741      -17.17739  0.0000  0.0000  0.0000  0.0000
  381  0.00002    0.0   12.9      -17.17755      -17.17755      -17.17741      -17.17739  0.0000  0.0000  0.0000  0.0000
  382  0.00003    0.0   14.9      -17.17757      -17.17757      -17.17742      -17.17739  0.0000  0.0000  0.0000  0.0000
  383  0.00003    0.0   17.8      -17.17761      -17.17761      -17.17742      -17.17739  0.0000  0.0000  0.0000  0.0000
  384  0.00004    0.0   21.3      -17.17766      -17.17766      -17.17743      -17.17739  0.0000  0.0000  0.0000  0.0000
  385  0.00005    0.0   25.5      -17.17771      -17.17771      -17.17744      -17.17739  0.0000  0.0000  0.0000  0.0000
  386  0.00006    0.0   30.0      -17.17777      -17.17777      -17.17745      -17.17739  0.0000  0.0000  0.0000  0.0000
  387  0.00008    0.0   34.9      -17.17783      -17.17783      -17.17747      -17.17739  0.0000  0.0000  0.0000  0.0000
  388  0.00009    0.0   39.9      -17.17789      -17.17789      -17.17748      -17.17739  0.0000  0.0000  0.0000  0.0000
  389  0.00010    0.0   45.0      -17.17796      -17.17796      -17.17749      -17.17739  0.0000  0.0000  0.0000  0.0000
  390  0.00011    0.0   50.0      -17.17802      -17.17802      -17.17750      -17.17739  0.0000  0.0000  0.0000  0.0000
  391  0.00012    0.0   54.9      -17.17808      -17.17808      -17.17751      -17.17739  0.0000  0.0000  0.0000  0.0000
  392  0.00013    0.0   59.5      -17.17813      -17.17813      -17.17752      -17.17739  0.0000  0.0000  0.0000  0.0000
  393  0.00014    0.0   63.9      -17.17818      -17.17818      -17.17753      -17.17739  0.0000  0.0000  0.0000  0.0000
  394  0.00014    0.0   67.7      -17.17822      -17.17822      -17.17753      -17.17739  0.0000  0.0000  0.0000  0.0000
  395  0.00014    0.0   71.1      -17.17826      -17.17826      -17.17753      -17.17739  0.0000  0.0000  0.0000  0.0000
  396  0.00014    0.0   73.8      -17.17828      -17.17828      -17.17753      -17.17739  0.0000  0.0000  0.0000  0.0000
  397  0.00014    0.0   75.7      -17.17830      -17.17830      -17.17753      -17.17739  0.0000  0.0000  0.0000  0.0000
  398  0.00014    0.0   76.8      -17.17831      -17.17831      -17.17753      -17.17739  0.0000  0.0000  0.0000  0.0000
  399  0.00014    0.0   77.0      -17.17831      -17.17831      -17.17753      -17.17739  0.0000  0.0000  0.0000  0.0000
  400  0.00013    0.0   76.2      -17.17830      -17.17830      -17.17753      -17.17739  0.0000  0.0000  0.0000  0.0000

   writing restart file: /plx/userinternal/acv0/espresso/CPV/tmp//h2o_51.save
   restart file written in    0.060 sec.

  401  0.00013    0.0   74.6      -17.17828      -17.17828      -17.17752      -17.17739  0.0000  0.0000  0.0000  0.0000
  402  0.00013    0.0   72.1      -17.17825      -17.17825      -17.17752      -17.17739  0.0000  0.0000  0.0000  0.0000
  403  0.00013    0.0   68.9      -17.17821      -17.17821      -17.17752      -17.17739  0.0000  0.0000  0.0000  0.0000
  404  0.00012    0.0   64.9      -17.17817      -17.17817      -17.17751      -17.17739  0.0000  0.0000  0.0000  0.0000
  405  0.00012    0.0   60.4      -17.17812      -17.17812      -17.17751      -17.17739  0.0000  0.0000  0.0000  0.0000
  406  0.00011    0.0   55.6      -17.17806      -17.17806      -17.17750      -17.17739  0.0000  0.0000  0.0000  0.0000
  407  0.00010    0.0   50.4      -17.17800      -17.17800      -17.17750      -17.17739  0.0000  0.0000  0.0000  0.0000
  408  0.00009    0.0   45.0      -17.17794      -17.17794      -17.17749      -17.17739  0.0000  0.0000  0.0000  0.0000
  409  0.00008    0.0   39.6      -17.17787      -17.17787      -17.17748      -17.17739  0.0000  0.0000  0.0000  0.0000
  410  0.00007    0.0   34.3      -17.17781      -17.17781      -17.17747      -17.17739  0.0000  0.0000  0.0000  0.0000
  411  0.00006    0.0   29.1      -17.17774      -17.17774      -17.17745      -17.17739  0.0000  0.0000  0.0000  0.0000
  412  0.00005    0.0   24.1      -17.17768      -17.17768      -17.17744      -17.17739  0.0000  0.0000  0.0000  0.0000
  413  0.00004    0.0   19.4      -17.17762      -17.17762      -17.17743      -17.17739  0.0000  0.0000  0.0000  0.0000
  414  0.00003    0.0   15.1      -17.17757      -17.17757      -17.17742      -17.17739  0.0000  0.0000  0.0000  0.0000
  415  0.00002    0.0   11.2      -17.17752      -17.17752      -17.17741      -17.17739  0.0000  0.0000  0.0000  0.0000
  416  0.00002    0.0    7.8      -17.17749      -17.17749      -17.17741      -17.17739  0.0000  0.0000  0.0000  0.0000
  417  0.00001    0.0    5.1      -17.17745      -17.17745      -17.17741      -17.17739  0.0000  0.0000  0.0000  0.0000
  418  0.00001    0.0    3.0      -17.17743      -17.17743      -17.17740      -17.17739  0.0000  0.0000  0.0000  0.0000
  419  0.00001    0.0    1.6      -17.17742      -17.17742      -17.17740      -17.17739  0.0000  0.0000  0.0000  0.0000
  420  0.00001    0.0    1.0      -17.17741      -17.17741      -17.17740      -17.17739  0.0000  0.0000  0.0000  0.0000
  421  0.00001    0.0    1.2      -17.17742      -17.17742      -17.17740      -17.17739  0.0000  0.0000  0.0000  0.0000
  422  0.00001    0.0    2.2      -17.17743      -17.17743      -17.17741      -17.17739  0.0000  0.0000  0.0000  0.0000
  423  0.00002    0.0    4.0      -17.17745      -17.17745      -17.17741      -17.17739  0.0000  0.0000  0.0000  0.0000
  424  0.00002    0.0    6.5      -17.17748      -17.17748      -17.17741      -17.17739  0.0000  0.0000  0.0000  0.0000
  425  0.00002    0.0    9.6      -17.17751      -17.17751      -17.17742      -17.17739  0.0000  0.0000  0.0000  0.0000
  426  0.00003    0.0   13.3      -17.17756      -17.17756      -17.17742      -17.17739  0.0000  0.0000  0.0000  0.0000
  427  0.00004    0.0   17.5      -17.17761      -17.17761      -17.17743      -17.17739  0.0000  0.0000  0.0000  0.0000
  428  0.00004    0.0   22.0      -17.17766      -17.17766      -17.17744      -17.17739  0.0000  0.0000  0.0000  0.0000
  429  0.00005    0.0   26.8      -17.17772      -17.17772      -17.17745      -17.17739  0.0000  0.0000  0.0000  0.0000
  430  0.00006    0.0   31.9      -17.17778      -17.17778      -17.17746      -17.17739  0.0000  0.0000  0.0000  0.0000
  431  0.00008    0.0   37.1      -17.17785      -17.17785      -17.17747      -17.17739  0.0000  0.0000  0.0000  0.0000
  432  0.00009    0.0   42.3      -17.17792      -17.17792      -17.17748      -17.17739  0.0000  0.0000  0.0000  0.0000
  433  0.00010    0.0   47.6      -17.17798      -17.17798      -17.17750      -17.17739  0.0000  0.0000  0.0000  0.0000
  434  0.00011    0.0   52.9      -17.17805      -17.17805      -17.17751      -17.17739  0.0000  0.0000  0.0000  0.0000
  435  0.00012    0.0   58.1      -17.17811      -17.17811      -17.17752      -17.17739  0.0000  0.0000  0.0000  0.0000
  436  0.00013    0.0   63.0      -17.17817      -17.17817      -17.17753      -17.17739  0.0000  0.0000  0.0000  0.0000
  437  0.00014    0.0   67.6      -17.17822      -17.17822      -17.17753      -17.17739  0.0000  0.0000  0.0000  0.0000
  438  0.00014    0.0   71.8      -17.17827      -17.17827      -17.17754      -17.17739  0.0000  0.0000  0.0000  0.0000
  439  0.00014    0.0   75.3      -17.17831      -17.17831      -17.17754      -17.17739  0.0000  0.0000  0.0000  0.0000
  440  0.00015    0.0   78.1      -17.17834      -17.17834      -17.17754      -17.17739  0.0000  0.0000  0.0000  0.0000
  441  0.00015    0.0   80.0      -17.17836      -17.17836      -17.17754      -17.17739  0.0000  0.0000  0.0000  0.0000
  442  0.00014    0.0   81.0      -17.17837      -17.17837      -17.17754      -17.17739  0.0000  0.0000  0.0000  0.0000
  443  0.00014    0.0   80.9      -17.17837      -17.17837      -17.17754      -17.17739  0.0000  0.0000  0.0000  0.0000
  444  0.00014    0.0   79.8      -17.17835      -17.17835      -17.17753      -17.17739  0.0000  0.0000  0.0000  0.0000
  445  0.00014    0.0   77.7      -17.17833      -17.17833      -17.17753      -17.17739  0.0000  0.0000  0.0000  0.0000
  446  0.00014    0.0   74.8      -17.17830      -17.17830      -17.17753      -17.17739  0.0000  0.0000  0.0000  0.0000
  447  0.00014    0.0   71.1      -17.17826      -17.17826      -17.17753      -17.17739  0.0000  0.0000  0.0000  0.0000
  448  0.00013    0.0   66.9      -17.17821      -17.17821      -17.17752      -17.17739  0.0000  0.0000  0.0000  0.0000
  449  0.00012    0.0   62.2      -17.17816      -17.17816      -17.17752      -17.17739  0.0000  0.0000  0.0000  0.0000
  450  0.00012    0.0   57.2      -17.17810      -17.17810      -17.17751      -17.17739  0.0000  0.0000  0.0000  0.0000
  451  0.00011    0.0   52.0      -17.17804      -17.17804      -17.17750      -17.17739  0.0000  0.0000  0.0000  0.0000
  452  0.00009    0.0   46.8      -17.17797      -17.17797      -17.17748      -17.17739  0.0000  0.0000  0.0000  0.0000
  453  0.00008    0.0   41.5      -17.17791      -17.17791      -17.17747      -17.17739  0.0000  0.0000  0.0000  0.0000
  454  0.00007    0.0   36.4      -17.17784      -17.17784      -17.17746      -17.17739  0.0000  0.0000  0.0000  0.0000
  455  0.00006    0.0   31.4      -17.17778      -17.17778      -17.17745      -17.17739  0.0000  0.0000  0.0000  0.0000
  456  0.00005    0.0   26.8      -17.17772      -17.17772      -17.17744      -17.17739  0.0000  0.0000  0.0000  0.0000
  457  0.00004    0.0   22.5      -17.17767      -17.17767      -17.17743      -17.17739  0.0000  0.0000  0.0000  0.0000
  458  0.00004    0.0   18.9      -17.17763      -17.17763      -17.17743      -17.17739  0.0000  0.0000  0.0000  0.0000
  459  0.00004    0.0   16.0      -17.17760      -17.17760      -17.17742      -17.17739  0.0000  0.0000  0.0000  0.0000
  460  0.00003    0.0   13.9      -17.17757      -17.17757      -17.17742      -17.17739  0.0000  0.0000  0.0000  0.0000
  461  0.00003    0.0   12.8      -17.17755      -17.17755      -17.17742      -17.17739  0.0000  0.0000  0.0000  0.0000
  462  0.00003    0.0   12.7      -17.17755      -17.17755      -17.17742      -17.17739  0.0000  0.0000  0.0000  0.0000
  463  0.00003    0.0   13.7      -17.17756      -17.17756      -17.17742      -17.17739  0.0000  0.0000  0.0000  0.0000
  464  0.00003    0.0   15.7      -17.17757      -17.17757      -17.17742      -17.17739  0.0000  0.0000  0.0000  0.0000
  465  0.00003    0.0   18.6      -17.17760      -17.17760      -17.17742      -17.17739  0.0000  0.0000  0.0000  0.0000
  466  0.00003    0.0   22.2      -17.17764      -17.17764      -17.17742      -17.17739  0.0000  0.0000  0.0000  0.0000
  467  0.00004    0.0   26.5      -17.17769      -17.17769      -17.17743      -17.17739  0.0000  0.0000  0.0000  0.0000
  468  0.00005    0.0   31.3      -17.17774      -17.17774      -17.17744      -17.17739  0.0000  0.0000  0.0000  0.0000
  469  0.00006    0.0   36.5      -17.17780      -17.17780      -17.17745      -17.17739  0.0000  0.0000  0.0000  0.0000
  470  0.00007    0.0   41.8      -17.17786      -17.17786      -17.17746      -17.17739  0.0000  0.0000  0.0000  0.0000
  471  0.00008    0.0   47.3      -17.17793      -17.17793      -17.17747      -17.17739  0.0000  0.0000  0.0000  0.0000
  472  0.00010    0.0   52.8      -17.17800      -17.17800      -17.17749      -17.17739  0.0000  0.0000  0.0000  0.0000
  473  0.00011    0.0   58.1      -17.17806      -17.17806      -17.17750      -17.17739  0.0000  0.0000  0.0000  0.0000
  474  0.00012    0.0   63.3      -17.17813      -17.17813      -17.17751      -17.17739  0.0000  0.0000  0.0000  0.0000
  475  0.00013    0.0   68.2      -17.17818      -17.17818      -17.17752      -17.17739  0.0000  0.0000  0.0000  0.0000
  476  0.00014    0.0   72.7      -17.17824      -17.17824      -17.17753      -17.17739  0.0000  0.0000  0.0000  0.0000
  477  0.00015    0.0   76.7      -17.17828      -17.17828      -17.17754      -17.17739  0.0000  0.0000  0.0000  0.0000
  478  0.00015    0.0   80.1      -17.17832      -17.17832      -17.17754      -17.17739  0.0000  0.0000  0.0000  0.0000
  479  0.00015    0.0   82.7      -17.17834      -17.17834      -17.17754      -17.17739  0.0000  0.0000  0.0000  0.0000
  480  0.00015    0.0   84.4      -17.17836      -17.17836      -17.17754      -17.17739  0.0000  0.0000  0.0000  0.0000
  481  0.00015    0.0   85.2      -17.17837      -17.17837      -17.17754      -17.17739  0.0000  0.0000  0.0000  0.0000
  482  0.00015    0.0   85.1      -17.17836      -17.17836      -17.17754      -17.17739  0.0000  0.0000  0.0000  0.0000
  483  0.00014    0.0   83.9      -17.17835      -17.17835      -17.17754      -17.17739  0.0000  0.0000  0.0000  0.0000
  484  0.00014    0.0   81.9      -17.17833      -17.17833      -17.17754      -17.17739  0.0000  0.0000  0.0000  0.0000
  485  0.00014    0.0   79.0      -17.17830      -17.17830      -17.17753      -17.17739  0.0000  0.0000  0.0000  0.0000
  486  0.00013    0.0   75.3      -17.17826      -17.17826      -17.17753      -17.17739  0.0000  0.0000  0.0000  0.0000
  487  0.00013    0.0   71.0      -17.17821      -17.17821      -17.17752      -17.17739  0.0000  0.0000  0.0000  0.0000
  488  0.00012    0.0   66.2      -17.17816      -17.17816      -17.17751      -17.17739  0.0000  0.0000  0.0000  0.0000
  489  0.00011    0.0   61.1      -17.17810      -17.17810      -17.17751      -17.17739  0.0000  0.0000  0.0000  0.0000
  490  0.00010    0.0   55.6      -17.17803      -17.17803      -17.17750      -17.17739  0.0000  0.0000  0.0000  0.0000
  491  0.00009    0.0   50.0      -17.17797      -17.17797      -17.17749      -17.17739  0.0000  0.0000  0.0000  0.0000
  492  0.00008    0.0   44.3      -17.17790      -17.17790      -17.17747      -17.17739  0.0000  0.0000  0.0000  0.0000
  493  0.00007    0.0   38.7      -17.17784      -17.17784      -17.17746      -17.17739  0.0000  0.0000  0.0000  0.0000
  494  0.00006    0.0   33.1      -17.17777      -17.17777      -17.17745      -17.17739  0.0000  0.0000  0.0000  0.0000
  495  0.00005    0.0   27.7      -17.17771      -17.17771      -17.17744      -17.17739  0.0000  0.0000  0.0000  0.0000
  496  0.00004    0.0   22.6      -17.17765      -17.17765      -17.17743      -17.17739  0.0000  0.0000  0.0000  0.0000
  497  0.00003    0.0   17.8      -17.17759      -17.17759      -17.17742      -17.17739  0.0000  0.0000  0.0000  0.0000
  498  0.00002    0.0   13.4      -17.17754      -17.17754      -17.17742      -17.17739  0.0000  0.0000  0.0000  0.0000
  499  0.00002    0.0    9.6      -17.17750      -17.17750      -17.17741      -17.17739  0.0000  0.0000  0.0000  0.0000
  500  0.00001    0.0    6.4      -17.17747      -17.17747      -17.17741      -17.17739  0.0000  0.0000  0.0000  0.0000

   writing restart file: /plx/userinternal/acv0/espresso/CPV/tmp//h2o_51.save
   restart file written in    0.061 sec.

  501  0.00001    0.0    4.0      -17.17744      -17.17744      -17.17741      -17.17739  0.0000  0.0000  0.0000  0.0000
  502  0.00001    0.0    2.3      -17.17743      -17.17743      -17.17740      -17.17739  0.0000  0.0000  0.0000  0.0000
  503  0.00001    0.0    1.4      -17.17742      -17.17742      -17.17740      -17.17739  0.0000  0.0000  0.0000  0.0000
  504  0.00001    0.0    1.4      -17.17742      -17.17742      -17.17740      -17.17739  0.0000  0.0000  0.0000  0.0000
  505  0.00001    0.0    2.3      -17.17743      -17.17743      -17.17740      -17.17739  0.0000  0.0000  0.0000  0.0000
  506  0.00001    0.0    4.0      -17.17745      -17.17745      -17.17741      -17.17739  0.0000  0.0000  0.0000  0.0000
  507  0.00002    0.0    6.5      -17.17748      -17.17748      -17.17741      -17.17739  0.0000  0.0000  0.0000  0.0000
  508  0.00002    0.0    9.7      -17.17751      -17.17751      -17.17742      -17.17739  0.0000  0.0000  0.0000  0.0000
  509  0.00003    0.0   13.5      -17.17756      -17.17756      -17.17742      -17.17739  0.0000  0.0000  0.0000  0.0000
  510  0.00003    0.0   17.9      -17.17761      -17.17761      -17.17743      -17.17739  0.0000  0.0000  0.0000  0.0000
  511  0.00004    0.0   22.7      -17.17766      -17.17766      -17.17744      -17.17739  0.0000  0.0000  0.0000  0.0000
  512  0.00005    0.0   27.8      -17.17772      -17.17772      -17.17745      -17.17739  0.0000  0.0000  0.0000  0.0000
  513  0.00006    0.0   33.1      -17.17778      -17.17778      -17.17746      -17.17739  0.0000  0.0000  0.0000  0.0000
  514  0.00007    0.0   38.6      -17.17785      -17.17785      -17.17747      -17.17739  0.0000  0.0000  0.0000  0.0000
  515  0.00008    0.0   44.2      -17.17791      -17.17791      -17.17748      -17.17739  0.0000  0.0000  0.0000  0.0000
  516  0.00009    0.0   49.7      -17.17798      -17.17798      -17.17749      -17.17739  0.0000  0.0000  0.0000  0.0000
  517  0.00010    0.0   55.1      -17.17804      -17.17804      -17.17750      -17.17739  0.0000  0.0000  0.0000  0.0000
  518  0.00011    0.0   60.3      -17.17810      -17.17810      -17.17751      -17.17739  0.0000  0.0000  0.0000  0.0000
  519  0.00012    0.0   65.1      -17.17815      -17.17815      -17.17751      -17.17739  0.0000  0.0000  0.0000  0.0000
  520  0.00012    0.0   69.5      -17.17820      -17.17820      -17.17752      -17.17739  0.0000  0.0000  0.0000  0.0000
  521  0.00013    0.0   73.3      -17.17824      -17.17824      -17.17752      -17.17739  0.0000  0.0000  0.0000  0.0000
  522  0.00013    0.0   76.4      -17.17827      -17.17827      -17.17752      -17.17739  0.0000  0.0000  0.0000  0.0000
  523  0.00013    0.0   78.6      -17.17829      -17.17829      -17.17752      -17.17739  0.0000  0.0000  0.0000  0.0000
  524  0.00013    0.0   80.0      -17.17831      -17.17831      -17.17752      -17.17739  0.0000  0.0000  0.0000  0.0000
  525  0.00013    0.0   80.4      -17.17831      -17.17831      -17.17753      -17.17739  0.0000  0.0000  0.0000  0.0000
  526  0.00013    0.0   79.9      -17.17831      -17.17831      -17.17753      -17.17739  0.0000  0.0000  0.0000  0.0000
  527  0.00013    0.0   78.3      -17.17829      -17.17829      -17.17753      -17.17739  0.0000  0.0000  0.0000  0.0000
  528  0.00013    0.0   75.8      -17.17826      -17.17826      -17.17752      -17.17739  0.0000  0.0000  0.0000  0.0000
  529  0.00013    0.0   72.5      -17.17823      -17.17823      -17.17752      -17.17739  0.0000  0.0000  0.0000  0.0000

 * Physical Quantities at step:   530


                total energy =      -17.17819 Hartree a.u.
              kinetic energy =       12.63450 Hartree a.u.
        electrostatic energy =      -18.18263 Hartree a.u.
                         esr =        0.15275 Hartree a.u.
                       eself =       18.94976 Hartree a.u.
      pseudopotential energy =       -9.36747 Hartree a.u.
  n-l pseudopotential energy =        1.95008 Hartree a.u.
 exchange-correlation energy =       -4.21267 Hartree a.u.
           average potential =        0.00000 Hartree a.u.



   Eigenvalues (eV), kp =   1 , spin =  1

  -24.81  -12.89   -8.86   -6.92
 
   Allocated memory (kb) =     87372
 
   CELL_PARAMETERS
   12.00000000    0.00000000    0.00000000
    0.00000000   12.00000000    0.00000000
    0.00000000    0.00000000   12.00000000

   System Density [g/cm^3] :     0.1167


   Center of mass square displacement (a.u.):   0.000029

   Total stress (GPa)
        0.25060449        -0.01323344         0.02334066
       -0.01323344        -0.09846510        -0.00004494
        0.02334066        -0.00004494        -0.06292615
   ATOMIC_POSITIONS
   O    0.990000E-02  0.990000E-02  0.000000E+00
   H    0.178426E+01 -0.298946E+00  0.127595E+00
   H   -0.193709E+00  0.182616E+01 -0.783811E-01
 
   ATOMIC_VELOCITIES
   O    0.000000E+00  0.000000E+00  0.000000E+00
   H   -0.722441E-03  0.356861E-03 -0.300252E-04
   H    0.215992E-03 -0.183277E-03 -0.401973E-05
 
   Forces acting on atoms (au):
   O   -0.136098E-01 -0.126210E-02 -0.973128E-03
   H    0.122388E-01  0.754078E-04  0.943446E-03
   H    0.185507E-02  0.772501E-03 -0.677713E-04
 


   Partial temperatures (for each ionic specie) 
   Species  Temp (K)   Mean Square Displacement (a.u.)
        1       2.73     0.0000
        2      67.18     0.0152
  530  0.00013    0.0   68.5      -17.17819      -17.17819      -17.17752      -17.17739  0.0000  0.0000  0.0000  0.0000

   writing restart file: /plx/userinternal/acv0/espresso/CPV/tmp//h2o_51.save
   restart file written in    0.060 sec.



   Averaged Physical Quantities
                      accomulated      this run
   ekinc         :        0.08442       0.00008 (AU)
   ekin          :       12.35250      12.58657 (AU)
   epot          :      -31.07384     -31.72314 (AU)
   total energy  :      -16.72411     -17.17791 (AU)
   temperature   :       33.31912      43.78395 (K )
   enthalpy      :      -16.72411     -17.17791 (AU)
   econs         :      -16.72378     -17.17747 (AU)
   pressure      :        1.27935      -0.15188 (Gpa)
   volume        :     1728.00000    1728.00000 (AU)


     initialize   :      1.20s CPU      0.16s WALL (       1 calls)
     main_loop    :    475.81s CPU     42.04s WALL (     200 calls)

     Called by main_loop:
     move_electro :    466.61s CPU     41.27s WALL (     200 calls)
     ortho        :      1.44s CPU      0.13s WALL (     200 calls)
     updatc       :      0.27s CPU      0.02s WALL (     200 calls)
     strucf       :      0.94s CPU      0.07s WALL (     201 calls)
     calbec       :      0.45s CPU      0.03s WALL (     201 calls)

     Called by move_electrons:
     rhoofr       :     84.06s CPU      7.27s WALL (     200 calls)
     vofrho       :    340.77s CPU     30.37s WALL (     200 calls)
     dforce       :     37.19s CPU      3.24s WALL (     400 calls)
     calphi       :      0.27s CPU      0.03s WALL (     200 calls)
     nlfl         :      0.03s CPU      0.00s WALL (     200 calls)

     Called by ortho:
     ortho_iter   :      0.11s CPU      0.01s WALL (     200 calls)
     rsg          :      0.32s CPU      0.03s WALL (     200 calls)
     rhoset       :      0.48s CPU      0.04s WALL (     200 calls)
     sigset       :      0.20s CPU      0.03s WALL (     200 calls)
     tauset       :      0.28s CPU      0.02s WALL (     200 calls)

     Small boxes:

     Low-level routines:
     prefor       :      0.18s CPU      0.02s WALL (     401 calls)
     nlfq         :      1.23s CPU      0.11s WALL (     200 calls)
     nlsm1        :      0.44s CPU      0.03s WALL (     201 calls)
     nlsm2        :      1.15s CPU      0.10s WALL (     200 calls)
     fft          :    117.02s CPU     10.10s WALL (    1600 calls)
     ffts         :     30.07s CPU      2.59s WALL (     400 calls)
     fftw         :     38.40s CPU      3.29s WALL (    1200 calls)
     fft_scatter  :     60.88s CPU      5.28s WALL (    3200 calls)
     betagx       :      0.37s CPU      0.04s WALL (       1 calls)
     qradx        :      0.00s CPU      0.00s WALL (       1 calls)
     nlinit       :      0.52s CPU      0.05s WALL (       1 calls)
     init_dim     :      0.03s CPU      0.04s WALL (       1 calls)
     newnlinit    :      0.02s CPU      0.00s WALL (       1 calls)
     from_restart :      0.38s CPU      0.03s WALL (       1 calls)
     ortho_iter   :      0.11s CPU      0.01s WALL (     200 calls)
 
 
     CP           :  7m59.19s CPU     0m42.40s WALL

 
   This run was terminated on:  17:24:38  19Aug2012            

=------------------------------------------------------------------------------=
   JOB DONE.
=------------------------------------------------------------------------------=
