
     Program CP v.4.2           starts on 30Aug2010 at 11:48:58 

     This program is part of the open-source Quantum ESPRESSO suite
     for quantum simulation of materials; please cite
         "P. Giannozzi et al., J. Phys.:Condens. Matter 21 395502 (2009);
          URL http://www.quantum-espresso.org", 
     in publications or presentations arising from this work. More details at
     http://www.quantum-espresso.org/wiki/index.php/Citing_Quantum-ESPRESSO

   Job Title: O2 Crystal


   Atomic Pseudopotentials Parameters
   ----------------------------------

   Reading pseudopotential for specie #  1 from file :
   /scratch/daily_test/espresso/pseudo/O.pbe-rrkjus.UPF
   file type is 20: UPF


   Main Simulation Parameters (from input)
   ---------------------------------------
   Restart Mode       =      -1   from_scratch   
   Number of MD Steps =      50
   Print out every           10 MD Steps
   Reads from unit    =      53
   Writes to unit     =      53
   MD Simulation time step            =      12.00
   Electronic fictitious mass (emass) =     800.00
   emass cut-off                      =       1.80

   Simulation Cell Parameters (from input)
   external pressure       =            0.00 [KBar]
   wmass (calculated)      =         4432.73 [AU]
   ibrav =   14
   alat  =    12.00000000
   a1    =    12.00000000    0.00000000    0.00000000
   a2    =     0.00000000   12.00000000    0.00000000
   a3    =     0.00000000    0.00000000   12.00000000
 
   b1    =     0.08333333    0.00000000    0.00000000
   b2    =     0.00000000    0.08333333    0.00000000
   b3    =     0.00000000    0.00000000    0.08333333
   omega =    1728.00000000

   Energy Cut-offs
   ---------------
   Ecutwfc =   30.0 Ry,      Ecutrho =  240.0 Ry,      Ecuts =  120.0 Ry
   Gcutwfc =   10.5     ,    Gcutrho =   29.6          Gcuts =   20.9
   NOTA BENE: refg, mmx =   0.050000  9600
   Eigenvalues calculated without the kinetic term contribution
   Orthog. with lagrange multipliers : eps =   0.10E-07,  max =  20
   verlet algorithm for electron dynamics
   with friction frice =  0.2000 , grease =  1.0000
   Electron dynamics : the temperature is not controlled
   initial random displacement of el. coordinates with  amplitude=  0.020000

   Electronic states
   -----------------
   Local Spin Density calculation
   Number of Electron =    12
   Spins up   =     7, occupations: 
   1.00 1.00 1.00 1.00 1.00 1.00 1.00
   Spins down =     5, occupations: 
   1.00 1.00 1.00 1.00 1.00


   Exchange and correlations functionals
   -------------------------------------
   Using Local Density Approximation with
     Exchange functional: SLATER                                                      
     Correlation functional: PERDEW AND WANG                                             
   Using Generalized Gradient Corrections with
     Exchange functional: PERDEW BURKE ERNZERHOF                                      
     Correlation functional: PERDEW BURKE ERNZERHOF                                      
     Exchange-correlation      =  SLA  PW   PBE  PBE (1434)
     EXX-fraction              =        0.00


   Ions Simulation Parameters
   --------------------------
   Ions are not allowed to move
   Ionic position (from input)
   sorted by specie, and converted to real a.u. coordinates
   Species   1 atoms =    2 mass =     29166.22 (a.u.),        16.00 (amu) rcmax =   1.00 (a.u.)
        3.260309     2.287244     5.163090
        3.260309     2.287244     7.479148
   Ionic position read from input file


   Cell Dynamics Parameters (from STDIN)
   -------------------------------------
   internal stress tensor calculated
   Starting cell generated from CELLDM
   Constant VOLUME Molecular dynamics
   cell parameters are not allowed to move

   Verbosity: iprsta =  2



   Simulation dimensions initialization
   ------------------------------------

   unit vectors of full simulation cell
   in real space:                         in reciprocal space (units 2pi/alat):
   1    12.0000    0.0000    0.0000              1.0000    0.0000    0.0000
   2     0.0000   12.0000    0.0000              0.0000    1.0000    0.0000
   3     0.0000    0.0000   12.0000              0.0000    0.0000    1.0000
 
   Stick Mesh
   ----------
   nst =  1375,  nstw =   175, nsts =   685
               n.st   n.stw   n.sts    n.g    n.gw   n.gs
   min        2749     349    1369  108671    4801   38401
   max        2749     349    1369  108671    4801   38401
       2749     349    1369  108671    4801   38401
 
 
   Real Mesh
   ---------
   Global Dimensions   Local  Dimensions   Processor Grid
   .X.   .Y.   .Z.     .X.   .Y.   .Z.     .X.   .Y.   .Z.
    60    60    60      60    60    60       1     1     1
   Array leading dimensions ( nr1x, nr2x, nr3x )   =     60    60    60
   Local number of cell to store the grid ( nnrx ) =     216000
   Number of x-y planes for each processors: 
   nr3l =    60
 
   Smooth Real Mesh
   ----------------
   Global Dimensions   Local  Dimensions   Processor Grid
   .X.   .Y.   .Z.     .X.   .Y.   .Z.     .X.   .Y.   .Z.
    45    45    45      45    45    45       1     1     1
   Array leading dimensions ( nr1x, nr2x, nr3x )   =     45    45    45
   Local number of cell to store the grid ( nnrx ) =      91125
   Number of x-y planes for each processors: 
   nr3sl =    45
 
   Small Box Real Mesh
   -------------------
   Global Dimensions   Local  Dimensions   Processor Grid
   .X.   .Y.   .Z.     .X.   .Y.   .Z.     .X.   .Y.   .Z.
    24    24    24      24    24    24       1     1     1
   Array leading dimensions ( nr1x, nr2x, nr3x )   =     24    24    24
   Local number of cell to store the grid ( nnrx ) =      13824
 
   unit vectors of box grid cell
   in real space:                         in reciprocal space:
       4.8000    0.0000    0.0000              1.0000    0.0000    0.0000
       0.0000    4.8000    0.0000              0.0000    1.0000    0.0000
       0.0000    0.0000    4.8000              0.0000    0.0000    1.0000
 
   Reciprocal Space Mesh
   ---------------------
   Large Mesh
     Global(ngmt)     MinLocal       MaxLocal      Average
          54336          54336          54336       54336.00
   Smooth Mesh
     Global(ngst)     MinLocal       MaxLocal      Average
          19201          19201          19201       19201.00
   Wave function Mesh
     Global(ngwt)     MinLocal       MaxLocal      Average
           2401           2401           2401        2401.00

   Small box Mesh
   ngb =         3490 not distributed to processors


   System geometry initialization
   ------------------------------
 
   Scaled positions from standard input
   O    0.271692E+00  0.190604E+00  0.430258E+00
   O    0.271692E+00  0.190604E+00  0.623262E+00


   Pseudopotentials initialization
   -------------------------------
  nlinit  nh(is), ngb, is, kkbeta, lmaxq =            8        3490           1
         865           3
 
                        qqq 
  -0.1022   0.5410   0.0000   0.0000
   0.5410  -2.5883   0.0000   0.0000
   0.0000   0.0000   0.2297   0.2861
   0.0000   0.0000   0.2861   0.3565
 


   Common initialization

   Specie:     1
   1  indv=  1   ang. mom=  0
   2  indv=  2   ang. mom=  0
   3  indv=  3   ang. mom=  1
   4  indv=  3   ang. mom=  1
   5  indv=  3   ang. mom=  1
   6  indv=  4   ang. mom=  1
   7  indv=  4   ang. mom=  1
   8  indv=  4   ang. mom=  1
 
                        dion 
   0.4798  -1.3236   0.0000   0.0000
  -1.3236   2.2757   0.0000   0.0000
   0.0000   0.0000   0.6278   0.8512
   0.0000   0.0000   0.8512   1.1500
 
   Short Legend and Physical Units in the Output
   ---------------------------------------------
   NFI    [int]          - step index
   EKINC  [HARTREE A.U.] - kinetic energy of the fictitious electronic dynamics
   TEMPH  [K]            - Temperature of the fictitious cell dynamics
   TEMP   [K]            - Ionic temperature
   ETOT   [HARTREE A.U.] - Scf total energy (Kohn-Sham hamiltonian)
   ENTHAL [HARTREE A.U.] - Enthalpy ( ETOT + P * V )
   ECONS  [HARTREE A.U.] - Enthalpy + kinetic energy of ions and cell
   ECONT  [HARTREE A.U.] - Constant of motion for the CP lagrangian
 


   Wave Initialization: random initial wave-functions
   Occupation number from init
   spin =   1 nbnd =     7
    1.00 1.00 1.00 1.00 1.00 1.00 1.00
   spin =   2 nbnd =     5
    1.00 1.00 1.00 1.00 1.00

   formf: eself=    28.72384
   formf:     vps(g=0)=  -0.0087653     rhops(g=0)=  -0.0034722
   formf: sum_g vps(g)=  -2.4887968 sum_g rhops(g)=  -0.5404975
   Delta V(G=0):   0.021817Ry,    0.593660eV

   from rhoofr: total integrated electronic density
   spin up
   in g-space =    7.000000   in r-space =   7.000000
   spin down
   in g-space =    5.000000   in r-space =   5.000000
 
  nfi    ekinc  temph  tempp        etot      enthal       econs       econt    vnhh   xnhh0    vnhp   xnhp0
    1  2.41344    0.0    0.0    37.20194    37.20194    37.20194    39.61537  0.0000  0.0000  0.0000  0.0000
    2  7.10050    0.0    0.0    29.16792    29.16792    29.16792    36.26842  0.0000  0.0000  0.0000  0.0000
    3 13.49144    0.0    0.0    14.64262    14.64262    14.64262    28.13406  0.0000  0.0000  0.0000  0.0000
    4 18.07015    0.0    0.0    -3.60930    -3.60930    -3.60930    14.46085  0.0000  0.0000  0.0000  0.0000
    5 17.01946    0.0    0.0   -17.05268   -17.05268   -17.05268    -0.03323  0.0000  0.0000  0.0000  0.0000
    6 11.85449    0.0    0.0   -23.11439   -23.11439   -23.11439   -11.25990  0.0000  0.0000  0.0000  0.0000
    7  6.72851    0.0    0.0   -25.00013   -25.00013   -25.00013   -18.27161  0.0000  0.0000  0.0000  0.0000
    8  3.54690    0.0    0.0   -25.67858   -25.67858   -25.67858   -22.13168  0.0000  0.0000  0.0000  0.0000
    9  2.12514    0.0    0.0   -26.44749   -26.44749   -26.44749   -24.32235  0.0000  0.0000  0.0000  0.0000

 * Physical Quantities at step:    10

   from rhoofr: total integrated electronic density
   spin up
   in g-space =    7.000000   in r-space =   7.000000
   spin down
   in g-space =    5.000000   in r-space =   5.000000


                total energy =      -27.46620 Hartree a.u.
              kinetic energy =       15.39570 Hartree a.u.
        electrostatic energy =      -27.87975 Hartree a.u.
                         esr =        0.31950 Hartree a.u.
                       eself =       28.72384 Hartree a.u.
      pseudopotential energy =      -16.70988 Hartree a.u.
  n-l pseudopotential energy =        8.18391 Hartree a.u.
 exchange-correlation energy =       -6.45619 Hartree a.u.
           average potential =        0.00000 Hartree a.u.



   Eigenvalues (eV), kp =   1 , spin =  1

  -40.52  -28.53  -22.87  -16.65  -12.59   -6.72    1.36

   Eigenvalues (eV), kp =   1 , spin =  2

  -39.61  -26.08  -20.08  -16.42   -7.95
 
   Allocated memory (kb) =    100852
 
   CELL_PARAMETERS
   12.00000000    0.00000000    0.00000000
    0.00000000   12.00000000    0.00000000
    0.00000000    0.00000000   12.00000000

   System Density [g/cm^3] :     0.2075


   Center of mass square displacement (a.u.):   0.000000

   Total stress (GPa)
       45.71690784         3.43129524         4.71930681
        3.43129524        43.37279948         5.25438202
        4.71932565         5.25437677        69.74144284
   ATOMIC_POSITIONS
   O    0.326031E+01  0.228724E+01  0.516309E+01
   O    0.326031E+01  0.228724E+01  0.747915E+01
 
   ATOMIC_VELOCITIES
   O    0.000000E+00  0.000000E+00  0.000000E+00
   O    0.000000E+00  0.000000E+00  0.000000E+00
 
   Forces acting on atoms (au):
   O   -0.307485E+00 -0.943647E-01 -0.672288E+00
   O    0.355658E+00  0.986622E-01  0.215047E+00
 


   Partial temperatures (for each ionic specie) 
   Species  Temp (K)   Mean Square Displacement (a.u.)
        1       0.00     0.0000
 
  nfi    ekinc  temph  tempp        etot      enthal       econs       econt    vnhh   xnhh0    vnhp   xnhp0
   10  1.63400    0.0    0.0   -27.46620   -27.46620   -27.46620   -25.83220  0.0000  0.0000  0.0000  0.0000
   11  1.42694    0.0    0.0   -28.50632   -28.50632   -28.50632   -27.07938  0.0000  0.0000  0.0000  0.0000
   12  1.21559    0.0    0.0   -29.36318   -29.36318   -29.36318   -28.14759  0.0000  0.0000  0.0000  0.0000
   13  0.95426    0.0    0.0   -29.96622   -29.96622   -29.96622   -29.01196  0.0000  0.0000  0.0000  0.0000
   14  0.69095    0.0    0.0   -30.34933   -30.34933   -30.34933   -29.65838  0.0000  0.0000  0.0000  0.0000
   15  0.47571    0.0    0.0   -30.58835   -30.58835   -30.58835   -30.11263  0.0000  0.0000  0.0000  0.0000
   16  0.32790    0.0    0.0   -30.75308   -30.75308   -30.75308   -30.42518  0.0000  0.0000  0.0000  0.0000
   17  0.23914    0.0    0.0   -30.88646   -30.88646   -30.88646   -30.64732  0.0000  0.0000  0.0000  0.0000
   18  0.18894    0.0    0.0   -31.00578   -31.00578   -31.00578   -30.81684  0.0000  0.0000  0.0000  0.0000
   19  0.15830    0.0    0.0   -31.11359   -31.11359   -31.11359   -30.95529  0.0000  0.0000  0.0000  0.0000

 * Physical Quantities at step:    20

   from rhoofr: total integrated electronic density
   spin up
   in g-space =    7.000000   in r-space =   7.000000
   spin down
   in g-space =    5.000000   in r-space =   5.000000


                total energy =      -31.20821 Hartree a.u.
              kinetic energy =       13.51015 Hartree a.u.
        electrostatic energy =      -28.26254 Hartree a.u.
                         esr =        0.31950 Hartree a.u.
                       eself =       28.72384 Hartree a.u.
      pseudopotential energy =      -16.73658 Hartree a.u.
  n-l pseudopotential energy =        7.04161 Hartree a.u.
 exchange-correlation energy =       -6.76085 Hartree a.u.
           average potential =        0.00000 Hartree a.u.



   Eigenvalues (eV), kp =   1 , spin =  1

  -34.10  -21.76  -15.08  -14.22  -11.95   -7.66   -2.89

   Eigenvalues (eV), kp =   1 , spin =  2

  -32.52  -20.32  -13.42  -12.76  -10.98
 
   Allocated memory (kb) =    100852
 
   CELL_PARAMETERS
   12.00000000    0.00000000    0.00000000
    0.00000000   12.00000000    0.00000000
    0.00000000    0.00000000   12.00000000

   System Density [g/cm^3] :     0.2075


   Center of mass square displacement (a.u.):   0.000000

   Total stress (GPa)
       -1.24558131         0.03809549         2.02259617
        0.03809549        -2.06375771         2.23487171
        2.02261246         2.23486907        19.91699373
   ATOMIC_POSITIONS
   O    0.326031E+01  0.228724E+01  0.516309E+01
   O    0.326031E+01  0.228724E+01  0.747915E+01
 
   ATOMIC_VELOCITIES
   O    0.000000E+00  0.000000E+00  0.000000E+00
   O    0.000000E+00  0.000000E+00  0.000000E+00
 
   Forces acting on atoms (au):
   O   -0.952189E-01 -0.545798E-01 -0.696383E+00
   O    0.165090E+00  0.104796E+00  0.373360E+00
 


   Partial temperatures (for each ionic specie) 
   Species  Temp (K)   Mean Square Displacement (a.u.)
        1       0.00     0.0000
 
  nfi    ekinc  temph  tempp        etot      enthal       econs       econt    vnhh   xnhh0    vnhp   xnhp0
   20  0.13561    0.0    0.0   -31.20821   -31.20821   -31.20821   -31.07260  0.0000  0.0000  0.0000  0.0000
   21  0.11626    0.0    0.0   -31.28920   -31.28920   -31.28920   -31.17294  0.0000  0.0000  0.0000  0.0000
   22  0.09944    0.0    0.0   -31.35815   -31.35815   -31.35815   -31.25871  0.0000  0.0000  0.0000  0.0000
   23  0.08528    0.0    0.0   -31.41744   -31.41744   -31.41744   -31.33215  0.0000  0.0000  0.0000  0.0000
   24  0.07362    0.0    0.0   -31.46904   -31.46904   -31.46904   -31.39541  0.0000  0.0000  0.0000  0.0000
   25  0.06387    0.0    0.0   -31.51411   -31.51411   -31.51411   -31.45023  0.0000  0.0000  0.0000  0.0000
   26  0.05538    0.0    0.0   -31.55320   -31.55320   -31.55320   -31.49782  0.0000  0.0000  0.0000  0.0000
   27  0.04773    0.0    0.0   -31.58668   -31.58668   -31.58668   -31.53896  0.0000  0.0000  0.0000  0.0000
   28  0.04075    0.0    0.0   -31.61498   -31.61498   -31.61498   -31.57423  0.0000  0.0000  0.0000  0.0000
   29  0.03445    0.0    0.0   -31.63864   -31.63864   -31.63864   -31.60419  0.0000  0.0000  0.0000  0.0000

 * Physical Quantities at step:    30

   from rhoofr: total integrated electronic density
   spin up
   in g-space =    7.000000   in r-space =   7.000000
   spin down
   in g-space =    5.000000   in r-space =   5.000000


                total energy =      -31.65831 Hartree a.u.
              kinetic energy =       13.35637 Hartree a.u.
        electrostatic energy =      -28.31516 Hartree a.u.
                         esr =        0.31950 Hartree a.u.
                       eself =       28.72384 Hartree a.u.
      pseudopotential energy =      -16.84373 Hartree a.u.
  n-l pseudopotential energy =        6.96146 Hartree a.u.
 exchange-correlation energy =       -6.81726 Hartree a.u.
           average potential =        0.00000 Hartree a.u.



   Eigenvalues (eV), kp =   1 , spin =  1

  -32.89  -20.72  -13.81  -13.49  -13.36   -6.81   -5.95

   Eigenvalues (eV), kp =   1 , spin =  2

  -31.39  -18.84  -12.47  -11.46  -10.98
 
   Allocated memory (kb) =    100852
 
   CELL_PARAMETERS
   12.00000000    0.00000000    0.00000000
    0.00000000   12.00000000    0.00000000
    0.00000000    0.00000000   12.00000000

   System Density [g/cm^3] :     0.2075


   Center of mass square displacement (a.u.):   0.000000

   Total stress (GPa)
       -0.52789166         0.48011318         1.38705998
        0.48011318        -0.16374832         1.16218730
        1.38706594         1.16218757         5.57413433
   ATOMIC_POSITIONS
   O    0.326031E+01  0.228724E+01  0.516309E+01
   O    0.326031E+01  0.228724E+01  0.747915E+01
 
   ATOMIC_VELOCITIES
   O    0.000000E+00  0.000000E+00  0.000000E+00
   O    0.000000E+00  0.000000E+00  0.000000E+00
 
   Forces acting on atoms (au):
   O   -0.345781E-01 -0.265596E-01 -0.141520E+00
   O    0.741408E-01  0.472091E-01  0.988304E-01
 


   Partial temperatures (for each ionic specie) 
   Species  Temp (K)   Mean Square Displacement (a.u.)
        1       0.00     0.0000
 
  nfi    ekinc  temph  tempp        etot      enthal       econs       econt    vnhh   xnhh0    vnhp   xnhp0
   30  0.02891    0.0    0.0   -31.65831   -31.65831   -31.65831   -31.62940  0.0000  0.0000  0.0000  0.0000
   31  0.02413    0.0    0.0   -31.67464   -31.67464   -31.67464   -31.65050  0.0000  0.0000  0.0000  0.0000
   32  0.02010    0.0    0.0   -31.68820   -31.68820   -31.68820   -31.66810  0.0000  0.0000  0.0000  0.0000
   33  0.01674    0.0    0.0   -31.69948   -31.69948   -31.69948   -31.68275  0.0000  0.0000  0.0000  0.0000
   34  0.01394    0.0    0.0   -31.70889   -31.70889   -31.70889   -31.69495  0.0000  0.0000  0.0000  0.0000
   35  0.01161    0.0    0.0   -31.71673   -31.71673   -31.71673   -31.70512  0.0000  0.0000  0.0000  0.0000
   36  0.00968    0.0    0.0   -31.72327   -31.72327   -31.72327   -31.71359  0.0000  0.0000  0.0000  0.0000
   37  0.00806    0.0    0.0   -31.72871   -31.72871   -31.72871   -31.72065  0.0000  0.0000  0.0000  0.0000
   38  0.00670    0.0    0.0   -31.73322   -31.73322   -31.73322   -31.72652  0.0000  0.0000  0.0000  0.0000
   39  0.00557    0.0    0.0   -31.73697   -31.73697   -31.73697   -31.73140  0.0000  0.0000  0.0000  0.0000

 * Physical Quantities at step:    40

   from rhoofr: total integrated electronic density
   spin up
   in g-space =    7.000000   in r-space =   7.000000
   spin down
   in g-space =    5.000000   in r-space =   5.000000


                total energy =      -31.74007 Hartree a.u.
              kinetic energy =       13.28537 Hartree a.u.
        electrostatic energy =      -28.32582 Hartree a.u.
                         esr =        0.31950 Hartree a.u.
                       eself =       28.72384 Hartree a.u.
      pseudopotential energy =      -16.82591 Hartree a.u.
  n-l pseudopotential energy =        6.94021 Hartree a.u.
 exchange-correlation energy =       -6.81392 Hartree a.u.
           average potential =        0.00000 Hartree a.u.



   Eigenvalues (eV), kp =   1 , spin =  1

  -32.72  -20.53  -13.41  -13.35  -13.32   -6.87   -6.75

   Eigenvalues (eV), kp =   1 , spin =  2

  -31.40  -18.63  -12.40  -11.36  -11.29
 
   Allocated memory (kb) =    100852
 
   CELL_PARAMETERS
   12.00000000    0.00000000    0.00000000
    0.00000000   12.00000000    0.00000000
    0.00000000    0.00000000   12.00000000

   System Density [g/cm^3] :     0.2075


   Center of mass square displacement (a.u.):   0.000000

   Total stress (GPa)
       -0.21686745         0.03939497         0.35641546
        0.03939497        -0.15784752         0.52154392
        0.35641729         0.52154479         1.23076955
   ATOMIC_POSITIONS
   O    0.326031E+01  0.228724E+01  0.516309E+01
   O    0.326031E+01  0.228724E+01  0.747915E+01
 
   ATOMIC_VELOCITIES
   O    0.000000E+00  0.000000E+00  0.000000E+00
   O    0.000000E+00  0.000000E+00  0.000000E+00
 
   Forces acting on atoms (au):
   O    0.513522E-02 -0.188602E-01 -0.482324E-01
   O    0.410531E-01  0.991112E-02  0.169825E-01
 


   Partial temperatures (for each ionic specie) 
   Species  Temp (K)   Mean Square Displacement (a.u.)
        1       0.00     0.0000
 
  nfi    ekinc  temph  tempp        etot      enthal       econs       econt    vnhh   xnhh0    vnhp   xnhp0
   40  0.00462    0.0    0.0   -31.74007   -31.74007   -31.74007   -31.73545  0.0000  0.0000  0.0000  0.0000
   41  0.00383    0.0    0.0   -31.74264   -31.74264   -31.74264   -31.73881  0.0000  0.0000  0.0000  0.0000
   42  0.00317    0.0    0.0   -31.74476   -31.74476   -31.74476   -31.74159  0.0000  0.0000  0.0000  0.0000
   43  0.00262    0.0    0.0   -31.74651   -31.74651   -31.74651   -31.74389  0.0000  0.0000  0.0000  0.0000
   44  0.00217    0.0    0.0   -31.74797   -31.74797   -31.74797   -31.74580  0.0000  0.0000  0.0000  0.0000
   45  0.00179    0.0    0.0   -31.74916   -31.74916   -31.74916   -31.74737  0.0000  0.0000  0.0000  0.0000
   46  0.00148    0.0    0.0   -31.75015   -31.75015   -31.75015   -31.74867  0.0000  0.0000  0.0000  0.0000
   47  0.00122    0.0    0.0   -31.75097   -31.75097   -31.75097   -31.74975  0.0000  0.0000  0.0000  0.0000
   48  0.00101    0.0    0.0   -31.75165   -31.75165   -31.75165   -31.75064  0.0000  0.0000  0.0000  0.0000
   49  0.00083    0.0    0.0   -31.75220   -31.75220   -31.75220   -31.75137  0.0000  0.0000  0.0000  0.0000

 * Physical Quantities at step:    50

   from rhoofr: total integrated electronic density
   spin up
   in g-space =    7.000000   in r-space =   7.000000
   spin down
   in g-space =    5.000000   in r-space =   5.000000


                total energy =      -31.75267 Hartree a.u.
              kinetic energy =       13.27054 Hartree a.u.
        electrostatic energy =      -28.32764 Hartree a.u.
                         esr =        0.31950 Hartree a.u.
                       eself =       28.72384 Hartree a.u.
      pseudopotential energy =      -16.82008 Hartree a.u.
  n-l pseudopotential energy =        6.93682 Hartree a.u.
 exchange-correlation energy =       -6.81231 Hartree a.u.
           average potential =        0.00000 Hartree a.u.



   Eigenvalues (eV), kp =   1 , spin =  1

  -32.70  -20.48  -13.33  -13.32  -13.31   -6.89   -6.87

   Eigenvalues (eV), kp =   1 , spin =  2

  -31.41  -18.61  -12.42  -11.35  -11.34
 
   Allocated memory (kb) =    100852
 
   CELL_PARAMETERS
   12.00000000    0.00000000    0.00000000
    0.00000000   12.00000000    0.00000000
    0.00000000    0.00000000   12.00000000

   System Density [g/cm^3] :     0.2075


   Center of mass square displacement (a.u.):   0.000000

   Total stress (GPa)
       -0.22665215         0.00901712         0.14938635
        0.00901712        -0.21653622         0.17631553
        0.14938690         0.17631599         0.54280133
   ATOMIC_POSITIONS
   O    0.326031E+01  0.228724E+01  0.516309E+01
   O    0.326031E+01  0.228724E+01  0.747915E+01
 
   ATOMIC_VELOCITIES
   O    0.000000E+00  0.000000E+00  0.000000E+00
   O    0.000000E+00  0.000000E+00  0.000000E+00
 
   Forces acting on atoms (au):
   O    0.348389E-02 -0.919012E-02 -0.249953E-01
   O    0.161468E-01  0.425263E-02  0.143208E-01
 


   Partial temperatures (for each ionic specie) 
   Species  Temp (K)   Mean Square Displacement (a.u.)
        1       0.00     0.0000
 
  nfi    ekinc  temph  tempp        etot      enthal       econs       econt    vnhh   xnhh0    vnhp   xnhp0
   50  0.00069    0.0    0.0   -31.75267   -31.75267   -31.75267   -31.75198  0.0000  0.0000  0.0000  0.0000

   writing restart file: /scratch/daily_test/espresso/tmp//o2_53.save
   restart file written in    0.085 sec.



   Averaged Physical Quantities
                      accomulated      this run
   ekinc         :        1.81166       1.81166 (AU)
   ekin          :       15.16917      15.16917 (AU)
   epot          :      -48.17132     -48.17132 (AU)
   total energy  :      -26.41671     -26.41671 (AU)
   temperature   :        0.00000       0.00000 (K )
   enthalpy      :      -26.41671     -26.41671 (AU)
   econs         :      -26.41671     -26.41671 (AU)
   pressure      :       33.97952      33.97952 (Gpa)
   volume        :     1728.00000    1728.00000 (AU)


     initialize   :      7.98s CPU      8.05s WALL (       1 calls)
     total_time   :     41.50s CPU     42.23s WALL (      50 calls)
     formf        :      0.27s CPU      0.27s WALL (       1 calls)
     rhoofr       :     11.30s CPU     11.34s WALL (      51 calls)
     vofrho       :     27.11s CPU     27.78s WALL (      51 calls)
     dforce       :      1.31s CPU      1.31s WALL (     306 calls)
     calphi       :      0.02s CPU      0.02s WALL (      51 calls)
     ortho        :      0.10s CPU      0.10s WALL (      51 calls)
     ortho_iter   :      0.01s CPU      0.01s WALL (     102 calls)
     rsg          :      0.00s CPU      0.00s WALL (     102 calls)
     rhoset       :      0.01s CPU      0.01s WALL (     102 calls)
     updatc       :      0.01s CPU      0.01s WALL (     102 calls)
     gram         :      0.00s CPU      0.00s WALL (       2 calls)
     newd         :      1.96s CPU      1.96s WALL (      51 calls)
     calbec       :      0.00s CPU      0.00s WALL (      52 calls)
     prefor       :      0.01s CPU      0.01s WALL (      51 calls)
     strucf       :      0.00s CPU      0.00s WALL (       1 calls)
     nlfl         :      0.00s CPU      0.00s WALL (      51 calls)
     nlfq         :      0.10s CPU      0.10s WALL (      51 calls)
     rhov         :      0.78s CPU      0.78s WALL (      51 calls)
     nlsm1        :      0.06s CPU      0.06s WALL (     154 calls)
     nlsm2        :      0.09s CPU      0.10s WALL (      51 calls)
     fft          :      9.43s CPU      9.46s WALL (    1173 calls)
     ffts         :      0.34s CPU      0.33s WALL (     102 calls)
     fftw         :      1.67s CPU      1.69s WALL (     918 calls)
     fftb         :      1.34s CPU      1.35s WALL (    3162 calls)
 
 
 
     CP           :    49.57s CPU        50.40s WALL

 
   This run was terminated on:  11:49:48  30Aug2010            

=------------------------------------------------------------------------------=
   JOB DONE.
=------------------------------------------------------------------------------=
