
     Program CP v.4.2           starts on 30Aug2010 at 11:53:59 

     This program is part of the open-source Quantum ESPRESSO suite
     for quantum simulation of materials; please cite
         "P. Giannozzi et al., J. Phys.:Condens. Matter 21 395502 (2009);
          URL http://www.quantum-espresso.org", 
     in publications or presentations arising from this work. More details at
     http://www.quantum-espresso.org/wiki/index.php/Citing_Quantum-ESPRESSO

   Job Title: O2 Crystal


   Atomic Pseudopotentials Parameters
   ----------------------------------

   Reading pseudopotential for specie #  1 from file :
   /scratch/daily_test/espresso/pseudo/O.pbe-rrkjus.UPF
   file type is 20: UPF


   Main Simulation Parameters (from input)
   ---------------------------------------
   Restart Mode       =       1   restart        
   Number of MD Steps =     100
   Print out every           10 MD Steps
   Reads from unit    =      53
   Writes to unit     =      54
   MD Simulation time step            =      12.00
   Electronic fictitious mass (emass) =     900.00
   emass cut-off                      =       2.80

   Simulation Cell Parameters (from input)
   external pressure       =            0.00 [KBar]
   wmass (calculated)      =         4432.73 [AU]
   ibrav =   14
   alat  =    12.00000000
   a1    =    12.00000000    0.00000000    0.00000000
   a2    =     0.00000000   12.00000000    0.00000000
   a3    =     0.00000000    0.00000000   12.00000000
 
   b1    =     0.08333333    0.00000000    0.00000000
   b2    =     0.00000000    0.08333333    0.00000000
   b3    =     0.00000000    0.00000000    0.08333333
   omega =    1728.00000000

   Energy Cut-offs
   ---------------
   Ecutwfc =   30.0 Ry,      Ecutrho =  240.0 Ry,      Ecuts =  120.0 Ry
   Gcutwfc =   10.5     ,    Gcutrho =   29.6          Gcuts =   20.9
   NOTA BENE: refg, mmx =   0.050000  9600
   Eigenvalues calculated without the kinetic term contribution
   Orthog. with lagrange multipliers : eps =   0.10E-07,  max =  20
   Electron dynamics with newton equations
   Electron dynamics : the temperature is not controlled

   Electronic states
   -----------------
   Local Spin Density calculation
   Number of Electron =    12
   Spins up   =     7, occupations: 
   1.00 1.00 1.00 1.00 1.00 1.00 1.00
   Spins down =     5, occupations: 
   1.00 1.00 1.00 1.00 1.00


   Exchange and correlations functionals
   -------------------------------------
   Using Local Density Approximation with
     Exchange functional: SLATER                                                      
     Correlation functional: PERDEW AND WANG                                             
   Using Generalized Gradient Corrections with
     Exchange functional: PERDEW BURKE ERNZERHOF                                      
     Correlation functional: PERDEW BURKE ERNZERHOF                                      
     Exchange-correlation      =  SLA  PW   PBE  PBE (1434)
     EXX-fraction              =        0.00


   Ions Simulation Parameters
   --------------------------
   Ions are allowed to move
   Ions dynamics with newton equations
   the temperature is computed for     6 degrees of freedom
   ion dynamics with fricp =  0.0000 and greasp =  1.0000
   Ionic position (from input)
   sorted by specie, and converted to real a.u. coordinates
   Species   1 atoms =    2 mass =     29166.22 (a.u.),        16.00 (amu) rcmax =   1.00 (a.u.)
        3.260309     2.287244     5.163090
        3.260309     2.287244     7.479148
   Ionic position will be re-read from restart file

   All atoms are allowed to move
   Ionic temperature is not controlled


   Cell Dynamics Parameters (from STDIN)
   -------------------------------------
   internal stress tensor calculated
   Starting cell generated from CELLDM
   Cell parameters will be re-read from restart file
   Constant VOLUME Molecular dynamics
   cell parameters are not allowed to move

   Verbosity: iprsta =  2



   Simulation dimensions initialization
   ------------------------------------

   unit vectors of full simulation cell
   in real space:                         in reciprocal space (units 2pi/alat):
   1    12.0000    0.0000    0.0000              1.0000    0.0000    0.0000
   2     0.0000   12.0000    0.0000              0.0000    1.0000    0.0000
   3     0.0000    0.0000   12.0000              0.0000    0.0000    1.0000
 
   Stick Mesh
   ----------
   nst =  1375,  nstw =   175, nsts =   685
               n.st   n.stw   n.sts    n.g    n.gw   n.gs
   min        2749     349    1369  108671    4801   38401
   max        2749     349    1369  108671    4801   38401
       2749     349    1369  108671    4801   38401
 
 
   Real Mesh
   ---------
   Global Dimensions   Local  Dimensions   Processor Grid
   .X.   .Y.   .Z.     .X.   .Y.   .Z.     .X.   .Y.   .Z.
    60    60    60      60    60    60       1     1     1
   Array leading dimensions ( nr1x, nr2x, nr3x )   =     60    60    60
   Local number of cell to store the grid ( nnrx ) =     216000
   Number of x-y planes for each processors: 
   nr3l =    60
 
   Smooth Real Mesh
   ----------------
   Global Dimensions   Local  Dimensions   Processor Grid
   .X.   .Y.   .Z.     .X.   .Y.   .Z.     .X.   .Y.   .Z.
    45    45    45      45    45    45       1     1     1
   Array leading dimensions ( nr1x, nr2x, nr3x )   =     45    45    45
   Local number of cell to store the grid ( nnrx ) =      91125
   Number of x-y planes for each processors: 
   nr3sl =    45
 
   Small Box Real Mesh
   -------------------
   Global Dimensions   Local  Dimensions   Processor Grid
   .X.   .Y.   .Z.     .X.   .Y.   .Z.     .X.   .Y.   .Z.
    24    24    24      24    24    24       1     1     1
   Array leading dimensions ( nr1x, nr2x, nr3x )   =     24    24    24
   Local number of cell to store the grid ( nnrx ) =      13824
 
   unit vectors of box grid cell
   in real space:                         in reciprocal space:
       4.8000    0.0000    0.0000              1.0000    0.0000    0.0000
       0.0000    4.8000    0.0000              0.0000    1.0000    0.0000
       0.0000    0.0000    4.8000              0.0000    0.0000    1.0000
 
   Reciprocal Space Mesh
   ---------------------
   Large Mesh
     Global(ngmt)     MinLocal       MaxLocal      Average
          54336          54336          54336       54336.00
   Smooth Mesh
     Global(ngst)     MinLocal       MaxLocal      Average
          19201          19201          19201       19201.00
   Wave function Mesh
     Global(ngwt)     MinLocal       MaxLocal      Average
           2401           2401           2401        2401.00

   Small box Mesh
   ngb =         3490 not distributed to processors


   System geometry initialization
   ------------------------------
 
   Scaled positions from standard input
   O    0.271692E+00  0.190604E+00  0.430258E+00
   O    0.271692E+00  0.190604E+00  0.623262E+00
   ibrav =   14       cell parameters 

      12.00000       0.00000       0.00000
       0.00000      12.00000       0.00000
       0.00000       0.00000      12.00000
 


   Pseudopotentials initialization
   -------------------------------
  nlinit  nh(is), ngb, is, kkbeta, lmaxq =            8        3490           1
         865           3
 
                        qqq 
  -0.1022   0.5410   0.0000   0.0000
   0.5410  -2.5883   0.0000   0.0000
   0.0000   0.0000   0.2297   0.2861
   0.0000   0.0000   0.2861   0.3565
 


   Common initialization

   Specie:     1
   1  indv=  1   ang. mom=  0
   2  indv=  2   ang. mom=  0
   3  indv=  3   ang. mom=  1
   4  indv=  3   ang. mom=  1
   5  indv=  3   ang. mom=  1
   6  indv=  4   ang. mom=  1
   7  indv=  4   ang. mom=  1
   8  indv=  4   ang. mom=  1
 
                        dion 
   0.4798  -1.3236   0.0000   0.0000
  -1.3236   2.2757   0.0000   0.0000
   0.0000   0.0000   0.6278   0.8512
   0.0000   0.0000   0.8512   1.1500
 
   Short Legend and Physical Units in the Output
   ---------------------------------------------
   NFI    [int]          - step index
   EKINC  [HARTREE A.U.] - kinetic energy of the fictitious electronic dynamics
   TEMPH  [K]            - Temperature of the fictitious cell dynamics
   TEMP   [K]            - Ionic temperature
   ETOT   [HARTREE A.U.] - Scf total energy (Kohn-Sham hamiltonian)
   ENTHAL [HARTREE A.U.] - Enthalpy ( ETOT + P * V )
   ECONS  [HARTREE A.U.] - Enthalpy + kinetic energy of ions and cell
   ECONT  [HARTREE A.U.] - Constant of motion for the CP lagrangian
 

   reading restart file: /scratch/daily_test/espresso/tmp//o2_53.save
   restart file read in    0.019 sec.


   formf: eself=    28.72384
   formf:     vps(g=0)=  -0.0087653     rhops(g=0)=  -0.0034722
   formf: sum_g vps(g)=  -2.4887968 sum_g rhops(g)=  -0.5404975
   Delta V(G=0):   0.021817Ry,    0.593660eV
 
  nfi    ekinc  temph  tempp        etot      enthal       econs       econt    vnhh   xnhh0    vnhp   xnhp0
  311  0.00435    0.0  762.6   -31.72653   -31.72653   -31.71928   -31.71494  0.0000  0.0000  0.0000  0.0000
  312  0.00530    0.0 1044.1   -31.73018   -31.73018   -31.72026   -31.71495  0.0000  0.0000  0.0000  0.0000
  313  0.00620    0.0 1340.5   -31.73391   -31.73391   -31.72117   -31.71497  0.0000  0.0000  0.0000  0.0000
  314  0.00709    0.0 1628.1   -31.73754   -31.73754   -31.72207   -31.71498  0.0000  0.0000  0.0000  0.0000
  315  0.00807    0.0 1886.0   -31.74098   -31.74098   -31.72306   -31.71499  0.0000  0.0000  0.0000  0.0000
  316  0.00919    0.0 2101.5   -31.74415   -31.74415   -31.72419   -31.71500  0.0000  0.0000  0.0000  0.0000
  317  0.01040    0.0 2272.4   -31.74701   -31.74701   -31.72542   -31.71502  0.0000  0.0000  0.0000  0.0000
  318  0.01156    0.0 2405.9   -31.74946   -31.74946   -31.72660   -31.71504  0.0000  0.0000  0.0000  0.0000
  319  0.01248    0.0 2513.9   -31.75142   -31.75142   -31.72754   -31.71506  0.0000  0.0000  0.0000  0.0000

 * Physical Quantities at step:   320

   from rhoofr: total integrated electronic density
   spin up
   in g-space =    7.000000   in r-space =   7.000000
   spin down
   in g-space =    5.000000   in r-space =   5.000000


                total energy =      -31.75286 Hartree a.u.
              kinetic energy =       13.29653 Hartree a.u.
        electrostatic energy =      -28.28360 Hartree a.u.
                         esr =        0.36371 Hartree a.u.
                       eself =       28.72384 Hartree a.u.
      pseudopotential energy =      -16.89023 Hartree a.u.
  n-l pseudopotential energy =        6.95453 Hartree a.u.
 exchange-correlation energy =       -6.83009 Hartree a.u.
           average potential =        0.00000 Hartree a.u.



   Eigenvalues (eV), kp =   1 , spin =  1

  -33.17  -20.28  -13.55  -13.55  -13.44   -6.75   -6.75

   Eigenvalues (eV), kp =   1 , spin =  2

  -31.90  -18.44  -12.54  -11.57  -11.57
 
   Allocated memory (kb) =    100856
 
   CELL_PARAMETERS
   12.00000000    0.00000000    0.00000000
    0.00000000   12.00000000    0.00000000
    0.00000000    0.00000000   12.00000000

   System Density [g/cm^3] :     0.2075


   Center of mass square displacement (a.u.):   0.016027

   Total stress (GPa)
       -0.70028377         0.03407538         0.48130278
        0.03407538        -0.73279980         0.29677275
        0.48130117         0.29677173         3.05156140
   ATOMIC_POSITIONS
   O    0.315776E+01  0.216241E+01  0.531055E+01
   O    0.341667E+01  0.232615E+01  0.756370E+01
 
   ATOMIC_VELOCITIES
   O   -0.116930E-03 -0.670988E-04 -0.911710E-03
   O    0.116930E-03  0.670988E-04  0.911710E-03
 
   Forces acting on atoms (au):
   O   -0.390772E-02 -0.259302E-02 -0.378851E-01
   O    0.361984E-02  0.164557E-02  0.381061E-01
 


   Partial temperatures (for each ionic specie) 
   Species  Temp (K)   Mean Square Displacement (a.u.)
        1    2607.62     0.0245
 
  nfi    ekinc  temph  tempp        etot      enthal       econs       econt    vnhh   xnhh0    vnhp   xnhp0
  320  0.01303    0.0 2607.6   -31.75286   -31.75286   -31.72808   -31.71505  0.0000  0.0000  0.0000  0.0000
  321  0.01316    0.0 2693.3   -31.75379   -31.75379   -31.72821   -31.71504  0.0000  0.0000  0.0000  0.0000
  322  0.01295    0.0 2770.1   -31.75431   -31.75431   -31.72799   -31.71503  0.0000  0.0000  0.0000  0.0000
  323  0.01252    0.0 2830.5   -31.75444   -31.75444   -31.72755   -31.71503  0.0000  0.0000  0.0000  0.0000
  324  0.01199    0.0 2863.2   -31.75423   -31.75423   -31.72703   -31.71504  0.0000  0.0000  0.0000  0.0000
  325  0.01145    0.0 2857.7   -31.75365   -31.75365   -31.72650   -31.71505  0.0000  0.0000  0.0000  0.0000
  326  0.01099    0.0 2808.0   -31.75272   -31.75272   -31.72604   -31.71505  0.0000  0.0000  0.0000  0.0000
  327  0.01066    0.0 2715.6   -31.75151   -31.75151   -31.72571   -31.71505  0.0000  0.0000  0.0000  0.0000
  328  0.01043    0.0 2589.2   -31.75008   -31.75008   -31.72548   -31.71505  0.0000  0.0000  0.0000  0.0000
  329  0.01023    0.0 2441.9   -31.74848   -31.74848   -31.72528   -31.71505  0.0000  0.0000  0.0000  0.0000

 * Physical Quantities at step:   330

   from rhoofr: total integrated electronic density
   spin up
   in g-space =    7.000000   in r-space =   7.000000
   spin down
   in g-space =    5.000000   in r-space =   5.000000


                total energy =      -31.74676 Hartree a.u.
              kinetic energy =       13.10571 Hartree a.u.
        electrostatic energy =      -28.46956 Hartree a.u.
                         esr =        0.17932 Hartree a.u.
                       eself =       28.72384 Hartree a.u.
      pseudopotential energy =      -16.51535 Hartree a.u.
  n-l pseudopotential energy =        6.86749 Hartree a.u.
 exchange-correlation energy =       -6.73505 Hartree a.u.
           average potential =        0.00000 Hartree a.u.



   Eigenvalues (eV), kp =   1 , spin =  1

  -30.90  -21.32  -13.13  -12.62  -12.62   -7.58   -7.58

   Eigenvalues (eV), kp =   1 , spin =  2

  -29.54  -19.42  -12.31  -10.63  -10.63
 
   Allocated memory (kb) =    100856
 
   CELL_PARAMETERS
   12.00000000    0.00000000    0.00000000
    0.00000000   12.00000000    0.00000000
    0.00000000    0.00000000   12.00000000

   System Density [g/cm^3] :     0.2075


   Center of mass square displacement (a.u.):   0.016027

   Total stress (GPa)
       -0.13954838        -0.02436101        -0.30474082
       -0.02436101        -0.11091896        -0.19308676
       -0.30474272        -0.19308796        -3.12068146
   ATOMIC_POSITIONS
   O    0.314342E+01  0.215419E+01  0.519911E+01
   O    0.343102E+01  0.233437E+01  0.767514E+01
 
   ATOMIC_VELOCITIES
   O   -0.111760E-03 -0.633470E-04 -0.853607E-03
   O    0.111760E-03  0.633470E-04  0.853607E-03
 
   Forces acting on atoms (au):
   O    0.856760E-02  0.445998E-02  0.704388E-01
   O   -0.845854E-02 -0.677958E-02 -0.699368E-01
 


   Partial temperatures (for each ionic specie) 
   Species  Temp (K)   Mean Square Displacement (a.u.)
        1    2287.59     0.0352
 
  nfi    ekinc  temph  tempp        etot      enthal       econs       econt    vnhh   xnhh0    vnhp   xnhp0
  330  0.00997    0.0 2287.6   -31.74676   -31.74676   -31.72503   -31.71506  0.0000  0.0000  0.0000  0.0000
  331  0.00955    0.0 2136.8   -31.74491   -31.74491   -31.72461   -31.71505  0.0000  0.0000  0.0000  0.0000
  332  0.00896    0.0 1995.1   -31.74295   -31.74295   -31.72400   -31.71504  0.0000  0.0000  0.0000  0.0000
  333  0.00821    0.0 1862.4   -31.74094   -31.74094   -31.72324   -31.71503  0.0000  0.0000  0.0000  0.0000
  334  0.00739    0.0 1734.8   -31.73889   -31.73889   -31.72241   -31.71502  0.0000  0.0000  0.0000  0.0000
  335  0.00657    0.0 1606.4   -31.73684   -31.73684   -31.72158   -31.71501  0.0000  0.0000  0.0000  0.0000
  336  0.00582    0.0 1472.4   -31.73481   -31.73481   -31.72082   -31.71501  0.0000  0.0000  0.0000  0.0000
  337  0.00519    0.0 1330.8   -31.73283   -31.73283   -31.72019   -31.71500  0.0000  0.0000  0.0000  0.0000
  338  0.00469    0.0 1183.3   -31.73093   -31.73093   -31.71969   -31.71500  0.0000  0.0000  0.0000  0.0000
  339  0.00429    0.0 1034.6   -31.72912   -31.72912   -31.71929   -31.71500  0.0000  0.0000  0.0000  0.0000

 * Physical Quantities at step:   340

   from rhoofr: total integrated electronic density
   spin up
   in g-space =    7.000000   in r-space =   7.000000
   spin down
   in g-space =    5.000000   in r-space =   5.000000


                total energy =      -31.72739 Hartree a.u.
              kinetic energy =       12.97889 Hartree a.u.
        electrostatic energy =      -28.54819 Hartree a.u.
                         esr =        0.10201 Hartree a.u.
                       eself =       28.72384 Hartree a.u.
      pseudopotential energy =      -16.32504 Hartree a.u.
  n-l pseudopotential energy =        6.84860 Hartree a.u.
 exchange-correlation energy =       -6.68164 Hartree a.u.
           average potential =        0.00000 Hartree a.u.



   Eigenvalues (eV), kp =   1 , spin =  1

  -29.48  -21.86  -12.84  -12.02  -12.02   -8.02   -8.02

   Eigenvalues (eV), kp =   1 , spin =  2

  -28.09  -20.02  -12.06  -10.04  -10.04
 
   Allocated memory (kb) =    100856
 
   CELL_PARAMETERS
   12.00000000    0.00000000    0.00000000
    0.00000000   12.00000000    0.00000000
    0.00000000    0.00000000   12.00000000

   System Density [g/cm^3] :     0.2075


   Center of mass square displacement (a.u.):   0.016027

   Total stress (GPa)
       -0.08618801        -0.04312411        -0.65554402
       -0.04312411        -0.04521624        -0.41629308
       -0.65554606        -0.41629435        -5.71439925
   ATOMIC_POSITIONS
   O    0.313204E+01  0.214793E+01  0.511429E+01
   O    0.344240E+01  0.234064E+01  0.775996E+01
 
   ATOMIC_VELOCITIES
   O   -0.757526E-04 -0.401187E-04 -0.531786E-03
   O    0.757526E-04  0.401187E-04  0.531786E-03
 
   Forces acting on atoms (au):
   O    0.115702E-01  0.677392E-02  0.101756E+00
   O   -0.115554E-01 -0.770002E-02 -0.102175E+00
 


   Partial temperatures (for each ionic specie) 
   Species  Temp (K)   Mean Square Displacement (a.u.)
        1     890.74     0.0605
 
  nfi    ekinc  temph  tempp        etot      enthal       econs       econt    vnhh   xnhh0    vnhp   xnhp0
  340  0.00392    0.0  890.7   -31.72739   -31.72739   -31.71893   -31.71501  0.0000  0.0000  0.0000  0.0000
  341  0.00351    0.0  757.0   -31.72571   -31.72571   -31.71852   -31.71500  0.0000  0.0000  0.0000  0.0000
  342  0.00305    0.0  636.4   -31.72409   -31.72409   -31.71805   -31.71500  0.0000  0.0000  0.0000  0.0000
  343  0.00256    0.0  529.6   -31.72258   -31.72258   -31.71754   -31.71499  0.0000  0.0000  0.0000  0.0000
  344  0.00210    0.0  435.1   -31.72121   -31.72121   -31.71708   -31.71498  0.0000  0.0000  0.0000  0.0000
  345  0.00172    0.0  350.4   -31.72003   -31.72003   -31.71670   -31.71498  0.0000  0.0000  0.0000  0.0000
  346  0.00142    0.0  273.4   -31.71900   -31.71900   -31.71640   -31.71498  0.0000  0.0000  0.0000  0.0000
  347  0.00118    0.0  203.2   -31.71809   -31.71809   -31.71616   -31.71499  0.0000  0.0000  0.0000  0.0000
  348  0.00098    0.0  140.6   -31.71730   -31.71730   -31.71596   -31.71498  0.0000  0.0000  0.0000  0.0000
  349  0.00081    0.0   87.6   -31.71663   -31.71663   -31.71579   -31.71498  0.0000  0.0000  0.0000  0.0000

 * Physical Quantities at step:   350

   from rhoofr: total integrated electronic density
   spin up
   in g-space =    7.000000   in r-space =   7.000000
   spin down
   in g-space =    5.000000   in r-space =   5.000000


                total energy =      -31.71611 Hartree a.u.
              kinetic energy =       12.94451 Hartree a.u.
        electrostatic energy =      -28.57288 Hartree a.u.
                         esr =        0.07771 Hartree a.u.
                       eself =       28.72384 Hartree a.u.
      pseudopotential energy =      -16.27356 Hartree a.u.
  n-l pseudopotential energy =        6.84723 Hartree a.u.
 exchange-correlation energy =       -6.66141 Hartree a.u.
           average potential =        0.00000 Hartree a.u.



   Eigenvalues (eV), kp =   1 , spin =  1

  -28.95  -22.18  -12.70  -11.79  -11.79   -8.20   -8.20

   Eigenvalues (eV), kp =   1 , spin =  2

  -27.51  -20.28  -11.96   -9.80   -9.79
 
   Allocated memory (kb) =    100856
 
   CELL_PARAMETERS
   12.00000000    0.00000000    0.00000000
    0.00000000   12.00000000    0.00000000
    0.00000000    0.00000000   12.00000000

   System Density [g/cm^3] :     0.2075


   Center of mass square displacement (a.u.):   0.016027

   Total stress (GPa)
       -0.03296847        -0.05054627        -0.72980594
       -0.05054627         0.01809432        -0.45229729
       -0.72980808        -0.45229860        -6.10557583
   ATOMIC_POSITIONS
   O    0.312584E+01  0.214497E+01  0.507467E+01
   O    0.344860E+01  0.234359E+01  0.779958E+01
 
   ATOMIC_VELOCITIES
   O   -0.274424E-04 -0.916605E-05 -0.119459E-03
   O    0.274424E-04  0.916605E-05  0.119459E-03
 
   Forces acting on atoms (au):
   O    0.119956E-01  0.759289E-02  0.111904E+00
   O   -0.123329E-01 -0.749387E-02 -0.112095E+00
 


   Partial temperatures (for each ionic specie) 
   Species  Temp (K)   Mean Square Displacement (a.u.)
        1      46.38     0.0777
 
  nfi    ekinc  temph  tempp        etot      enthal       econs       econt    vnhh   xnhh0    vnhp   xnhp0
  350  0.00069    0.0   46.4   -31.71611   -31.71611   -31.71567   -31.71498  0.0000  0.0000  0.0000  0.0000
  351  0.00060    0.0   18.4   -31.71576   -31.71576   -31.71559   -31.71499  0.0000  0.0000  0.0000  0.0000
  352  0.00054    0.0    3.7   -31.71556   -31.71556   -31.71553   -31.71499  0.0000  0.0000  0.0000  0.0000
  353  0.00049    0.0    1.0   -31.71549   -31.71549   -31.71548   -31.71499  0.0000  0.0000  0.0000  0.0000
  354  0.00048    0.0    8.5   -31.71554   -31.71554   -31.71546   -31.71498  0.0000  0.0000  0.0000  0.0000
  355  0.00053    0.0   25.0   -31.71574   -31.71574   -31.71550   -31.71498  0.0000  0.0000  0.0000  0.0000
  356  0.00066    0.0   50.0   -31.71611   -31.71611   -31.71563   -31.71497  0.0000  0.0000  0.0000  0.0000
  357  0.00087    0.0   84.7   -31.71666   -31.71666   -31.71585   -31.71498  0.0000  0.0000  0.0000  0.0000
  358  0.00113    0.0  130.9   -31.71736   -31.71736   -31.71611   -31.71498  0.0000  0.0000  0.0000  0.0000
  359  0.00140    0.0  191.0   -31.71820   -31.71820   -31.71638   -31.71499  0.0000  0.0000  0.0000  0.0000

 * Physical Quantities at step:   360

   from rhoofr: total integrated electronic density
   spin up
   in g-space =    7.000000   in r-space =   7.000000
   spin down
   in g-space =    5.000000   in r-space =   5.000000


                total energy =      -31.71918 Hartree a.u.
              kinetic energy =       12.95191 Hartree a.u.
        electrostatic energy =      -28.56736 Hartree a.u.
                         esr =        0.08349 Hartree a.u.
                       eself =       28.72384 Hartree a.u.
      pseudopotential energy =      -16.28345 Hartree a.u.
  n-l pseudopotential energy =        6.84457 Hartree a.u.
 exchange-correlation energy =       -6.66485 Hartree a.u.
           average potential =        0.00000 Hartree a.u.



   Eigenvalues (eV), kp =   1 , spin =  1

  -29.08  -22.09  -12.75  -11.86  -11.86   -8.16   -8.16

   Eigenvalues (eV), kp =   1 , spin =  2

  -27.68  -20.24  -12.00   -9.89   -9.89
 
   Allocated memory (kb) =    100856
 
   CELL_PARAMETERS
   12.00000000    0.00000000    0.00000000
    0.00000000   12.00000000    0.00000000
    0.00000000    0.00000000   12.00000000

   System Density [g/cm^3] :     0.2075


   Center of mass square displacement (a.u.):   0.016027

   Total stress (GPa)
        0.14323021        -0.06570776        -0.80356423
       -0.06570776         0.21067862        -0.48264217
       -0.80356640        -0.48264349        -6.52002255
   ATOMIC_POSITIONS
   O    0.312545E+01  0.214568E+01  0.508528E+01
   O    0.344899E+01  0.234288E+01  0.778897E+01
 
   ATOMIC_VELOCITIES
   O    0.215312E-04  0.215779E-04  0.293154E-03
   O   -0.215312E-04 -0.215779E-04 -0.293154E-03
 
   Forces acting on atoms (au):
   O    0.131323E-01  0.750755E-02  0.111609E+00
   O   -0.128304E-01 -0.880546E-02 -0.111448E+00
 


   Partial temperatures (for each ionic specie) 
   Species  Temp (K)   Mean Square Displacement (a.u.)
        1     266.68     0.0735
 
  nfi    ekinc  temph  tempp        etot      enthal       econs       econt    vnhh   xnhh0    vnhp   xnhp0
  360  0.00165    0.0  266.7   -31.71918   -31.71918   -31.71664   -31.71499  0.0000  0.0000  0.0000  0.0000
  361  0.00190    0.0  357.8   -31.72029   -31.72029   -31.71689   -31.71499  0.0000  0.0000  0.0000  0.0000
  362  0.00215    0.0  462.0   -31.72154   -31.72154   -31.71715   -31.71500  0.0000  0.0000  0.0000  0.0000
  363  0.00242    0.0  575.2   -31.72288   -31.72288   -31.71742   -31.71500  0.0000  0.0000  0.0000  0.0000
  364  0.00274    0.0  692.6   -31.72432   -31.72432   -31.71774   -31.71500  0.0000  0.0000  0.0000  0.0000
  365  0.00315    0.0  810.4   -31.72584   -31.72584   -31.71814   -31.71500  0.0000  0.0000  0.0000  0.0000
  366  0.00370    0.0  926.9   -31.72749   -31.72749   -31.71869   -31.71499  0.0000  0.0000  0.0000  0.0000
  367  0.00438    0.0 1043.5   -31.72929   -31.72929   -31.71937   -31.71500  0.0000  0.0000  0.0000  0.0000
  368  0.00513    0.0 1163.8   -31.73120   -31.73120   -31.72014   -31.71501  0.0000  0.0000  0.0000  0.0000
  369  0.00588    0.0 1292.2   -31.73317   -31.73317   -31.72089   -31.71501  0.0000  0.0000  0.0000  0.0000

 * Physical Quantities at step:   370

   from rhoofr: total integrated electronic density
   spin up
   in g-space =    7.000000   in r-space =   7.000000
   spin down
   in g-space =    5.000000   in r-space =   5.000000


                total energy =      -31.73516 Hartree a.u.
              kinetic energy =       13.02086 Hartree a.u.
        electrostatic energy =      -28.52481 Hartree a.u.
                         esr =        0.12521 Hartree a.u.
                       eself =       28.72384 Hartree a.u.
      pseudopotential energy =      -16.38341 Hartree a.u.
  n-l pseudopotential energy =        6.85267 Hartree a.u.
 exchange-correlation energy =       -6.70047 Hartree a.u.
           average potential =        0.00000 Hartree a.u.



   Eigenvalues (eV), kp =   1 , spin =  1

  -29.95  -21.67  -12.94  -12.22  -12.21   -7.87   -7.87

   Eigenvalues (eV), kp =   1 , spin =  2

  -28.56  -19.79  -12.14  -10.22  -10.22
 
   Allocated memory (kb) =    100856
 
   CELL_PARAMETERS
   12.00000000    0.00000000    0.00000000
    0.00000000   12.00000000    0.00000000
    0.00000000    0.00000000   12.00000000

   System Density [g/cm^3] :     0.2075


   Center of mass square displacement (a.u.):   0.016027

   Total stress (GPa)
       -0.11027573        -0.04195887        -0.58465719
       -0.04195887        -0.06064002        -0.34502612
       -0.58465926        -0.34502736        -4.85521302
   ATOMIC_POSITIONS
   O    0.313087E+01  0.215003E+01  0.514535E+01
   O    0.344356E+01  0.233853E+01  0.772890E+01
 
   ATOMIC_VELOCITIES
   O    0.661102E-04  0.492488E-04  0.678007E-03
   O   -0.661102E-04 -0.492488E-04 -0.678007E-03
 
   Forces acting on atoms (au):
   O    0.104291E-01  0.572010E-02  0.840697E-01
   O   -0.101804E-01 -0.735864E-02 -0.840054E-01
 


   Partial temperatures (for each ionic specie) 
   Species  Temp (K)   Mean Square Displacement (a.u.)
        1    1432.12     0.0512
 
  nfi    ekinc  temph  tempp        etot      enthal       econs       econt    vnhh   xnhh0    vnhp   xnhp0
  370  0.00653    0.0 1432.1   -31.73516   -31.73516   -31.72155   -31.71502  0.0000  0.0000  0.0000  0.0000
  371  0.00708    0.0 1584.7   -31.73715   -31.73715   -31.72209   -31.71502  0.0000  0.0000  0.0000  0.0000
  372  0.00753    0.0 1747.7   -31.73916   -31.73916   -31.72255   -31.71502  0.0000  0.0000  0.0000  0.0000
  373  0.00796    0.0 1915.5   -31.74119   -31.74119   -31.72299   -31.71503  0.0000  0.0000  0.0000  0.0000
  374  0.00841    0.0 2080.1   -31.74321   -31.74321   -31.72345   -31.71504  0.0000  0.0000  0.0000  0.0000
  375  0.00891    0.0 2233.3   -31.74517   -31.74517   -31.72395   -31.71504  0.0000  0.0000  0.0000  0.0000
  376  0.00945    0.0 2368.6   -31.74700   -31.74700   -31.72450   -31.71504  0.0000  0.0000  0.0000  0.0000
  377  0.01007    0.0 2482.9   -31.74870   -31.74870   -31.72511   -31.71504  0.0000  0.0000  0.0000  0.0000
  378  0.01074    0.0 2576.9   -31.75027   -31.75027   -31.72579   -31.71505  0.0000  0.0000  0.0000  0.0000
  379  0.01141    0.0 2653.8   -31.75168   -31.75168   -31.72647   -31.71506  0.0000  0.0000  0.0000  0.0000

 * Physical Quantities at step:   380

   from rhoofr: total integrated electronic density
   spin up
   in g-space =    7.000000   in r-space =   7.000000
   spin down
   in g-space =    5.000000   in r-space =   5.000000


                total energy =      -31.75289 Hartree a.u.
              kinetic energy =       13.17168 Hartree a.u.
        electrostatic energy =      -28.40694 Hartree a.u.
                         esr =        0.23972 Hartree a.u.
                       eself =       28.72384 Hartree a.u.
      pseudopotential energy =      -16.64037 Hartree a.u.
  n-l pseudopotential energy =        6.89058 Hartree a.u.
 exchange-correlation energy =       -6.76784 Hartree a.u.
           average potential =        0.00000 Hartree a.u.



   Eigenvalues (eV), kp =   1 , spin =  1

  -31.82  -20.96  -13.28  -13.00  -13.00   -7.31   -7.31

   Eigenvalues (eV), kp =   1 , spin =  2

  -30.50  -19.07  -12.44  -11.03  -11.03
 
   Allocated memory (kb) =    100856
 
   CELL_PARAMETERS
   12.00000000    0.00000000    0.00000000
    0.00000000   12.00000000    0.00000000
    0.00000000    0.00000000   12.00000000

   System Density [g/cm^3] :     0.2075


   Center of mass square displacement (a.u.):   0.016027

   Total stress (GPa)
       -0.53089797         0.00499704        -0.04226311
        0.00499704        -0.52772808        -0.01254287
       -0.04226500        -0.01254399        -0.74637580
   ATOMIC_POSITIONS
   O    0.314103E+01  0.215734E+01  0.524514E+01
   O    0.343340E+01  0.233123E+01  0.762911E+01
 
   ATOMIC_VELOCITIES
   O    0.966416E-04  0.683583E-04  0.933354E-03
   O   -0.966416E-04 -0.683583E-04 -0.933354E-03
 
   Forces acting on atoms (au):
   O    0.238005E-02  0.157269E-02  0.241501E-01
   O   -0.257934E-02 -0.163447E-02 -0.242250E-01
 


   Partial temperatures (for each ionic specie) 
   Species  Temp (K)   Mean Square Displacement (a.u.)
        1    2717.43     0.0301
 
  nfi    ekinc  temph  tempp        etot      enthal       econs       econt    vnhh   xnhh0    vnhp   xnhp0
  380  0.01200    0.0 2717.4   -31.75289   -31.75289   -31.72707   -31.71507  0.0000  0.0000  0.0000  0.0000
  381  0.01242    0.0 2770.1   -31.75381   -31.75381   -31.72749   -31.71508  0.0000  0.0000  0.0000  0.0000
  382  0.01260    0.0 2810.8   -31.75439   -31.75439   -31.72768   -31.71508  0.0000  0.0000  0.0000  0.0000
  383  0.01257    0.0 2834.8   -31.75458   -31.75458   -31.72765   -31.71507  0.0000  0.0000  0.0000  0.0000
  384  0.01238    0.0 2834.4   -31.75438   -31.75438   -31.72745   -31.71507  0.0000  0.0000  0.0000  0.0000
  385  0.01209    0.0 2800.5   -31.75377   -31.75377   -31.72716   -31.71507  0.0000  0.0000  0.0000  0.0000
  386  0.01173    0.0 2725.7   -31.75269   -31.75269   -31.72679   -31.71507  0.0000  0.0000  0.0000  0.0000
  387  0.01130    0.0 2606.1   -31.75112   -31.75112   -31.72636   -31.71506  0.0000  0.0000  0.0000  0.0000
  388  0.01081    0.0 2442.5   -31.74906   -31.74906   -31.72586   -31.71505  0.0000  0.0000  0.0000  0.0000
  389  0.01023    0.0 2240.7   -31.74656   -31.74656   -31.72527   -31.71504  0.0000  0.0000  0.0000  0.0000

 * Physical Quantities at step:   390

   from rhoofr: total integrated electronic density
   spin up
   in g-space =    7.000000   in r-space =   7.000000
   spin down
   in g-space =    5.000000   in r-space =   5.000000


                total energy =      -31.74367 Hartree a.u.
              kinetic energy =       13.41658 Hartree a.u.
        electrostatic energy =      -28.17234 Hartree a.u.
                         esr =        0.47544 Hartree a.u.
                       eself =       28.72384 Hartree a.u.
      pseudopotential energy =      -17.12033 Hartree a.u.
  n-l pseudopotential energy =        7.01141 Hartree a.u.
 exchange-correlation energy =       -6.87899 Hartree a.u.
           average potential =        0.00000 Hartree a.u.



   Eigenvalues (eV), kp =   1 , spin =  1

  -34.20  -19.84  -13.96  -13.96  -13.49   -6.31   -6.31

   Eigenvalues (eV), kp =   1 , spin =  2

  -32.97  -18.00  -12.54  -11.98  -11.98
 
   Allocated memory (kb) =    100856
 
   CELL_PARAMETERS
   12.00000000    0.00000000    0.00000000
    0.00000000   12.00000000    0.00000000
    0.00000000    0.00000000   12.00000000

   System Density [g/cm^3] :     0.2075


   Center of mass square displacement (a.u.):   0.016027

   Total stress (GPa)
       -0.45367977         0.05565333         0.86996267
        0.05565333        -0.51510159         0.52864395
        0.86996114         0.52864306         6.45475467
   ATOMIC_POSITIONS
   O    0.315230E+01  0.216538E+01  0.535568E+01
   O    0.342214E+01  0.232318E+01  0.751857E+01
 
   ATOMIC_VELOCITIES
   O    0.784574E-04  0.582992E-04  0.803087E-03
   O   -0.784574E-04 -0.582992E-04 -0.803087E-03
 
   Forces acting on atoms (au):
   O   -0.151921E-01 -0.899578E-02 -0.117745E+00
   O    0.144971E-01  0.823289E-02  0.117727E+00
 


   Partial temperatures (for each ionic specie) 
   Species  Temp (K)   Mean Square Displacement (a.u.)
        1    2009.31     0.0303
 
  nfi    ekinc  temph  tempp        etot      enthal       econs       econt    vnhh   xnhh0    vnhp   xnhp0
  390  0.00954    0.0 2009.3   -31.74367   -31.74367   -31.72458   -31.71504  0.0000  0.0000  0.0000  0.0000
  391  0.00872    0.0 1758.6   -31.74046   -31.74046   -31.72375   -31.71503  0.0000  0.0000  0.0000  0.0000
  392  0.00773    0.0 1498.0   -31.73698   -31.73698   -31.72275   -31.71502  0.0000  0.0000  0.0000  0.0000
  393  0.00660    0.0 1235.9   -31.73334   -31.73334   -31.72160   -31.71500  0.0000  0.0000  0.0000  0.0000
  394  0.00539    0.0  979.3   -31.72967   -31.72967   -31.72037   -31.71498  0.0000  0.0000  0.0000  0.0000
  395  0.00419    0.0  735.3   -31.72613   -31.72613   -31.71915   -31.71496  0.0000  0.0000  0.0000  0.0000
  396  0.00309    0.0  511.7   -31.72288   -31.72288   -31.71802   -31.71493  0.0000  0.0000  0.0000  0.0000
  397  0.00215    0.0  317.7   -31.72008   -31.72008   -31.71706   -31.71492  0.0000  0.0000  0.0000  0.0000
  398  0.00139    0.0  163.1   -31.71784   -31.71784   -31.71629   -31.71491  0.0000  0.0000  0.0000  0.0000
  399  0.00084    0.0   57.1   -31.71628   -31.71628   -31.71574   -31.71490  0.0000  0.0000  0.0000  0.0000

 * Physical Quantities at step:   400

   from rhoofr: total integrated electronic density
   spin up
   in g-space =    7.000000   in r-space =   7.000000
   spin down
   in g-space =    5.000000   in r-space =   5.000000


                total energy =      -31.71550 Hartree a.u.
              kinetic energy =       13.57790 Hartree a.u.
        electrostatic energy =      -27.98579 Hartree a.u.
                         esr =        0.66228 Hartree a.u.
                       eself =       28.72384 Hartree a.u.
      pseudopotential energy =      -17.46856 Hartree a.u.
  n-l pseudopotential energy =        7.09928 Hartree a.u.
 exchange-correlation energy =       -6.93833 Hartree a.u.
           average potential =        0.00000 Hartree a.u.



   Eigenvalues (eV), kp =   1 , spin =  1

  -35.69  -19.43  -14.64  -14.64  -13.66   -5.76   -5.76

   Eigenvalues (eV), kp =   1 , spin =  2

  -34.48  -17.58  -12.71  -12.67  -12.67
 
   Allocated memory (kb) =    100856
 
   CELL_PARAMETERS
   12.00000000    0.00000000    0.00000000
    0.00000000   12.00000000    0.00000000
    0.00000000    0.00000000   12.00000000

   System Density [g/cm^3] :     0.2075


   Center of mass square displacement (a.u.):   0.016027

   Total stress (GPa)
        0.00621539         0.10291539         1.47902133
        0.10291539        -0.11477696         0.84924792
        1.47902019         0.84924727        11.30783916
   ATOMIC_POSITIONS
   O    0.315647E+01  0.216936E+01  0.541147E+01
   O    0.341797E+01  0.231920E+01  0.746278E+01
 
   ATOMIC_VELOCITIES
   O   -0.194539E-04  0.220900E-05  0.401239E-04
   O    0.194539E-04 -0.220900E-05 -0.401239E-04
 
   Forces acting on atoms (au):
   O   -0.292106E-01 -0.171246E-01 -0.233119E+00
   O    0.288492E-01  0.158375E-01  0.234470E+00
 


   Partial temperatures (for each ionic specie) 
   Species  Temp (K)   Mean Square Displacement (a.u.)
        1       6.12     0.0402
 
  nfi    ekinc  temph  tempp        etot      enthal       econs       econt    vnhh   xnhh0    vnhp   xnhp0
  400  0.00055    0.0    6.1   -31.71550   -31.71550   -31.71544   -31.71489  0.0000  0.0000  0.0000  0.0000

   writing restart file: /scratch/daily_test/espresso/tmp//o2_54.save
   restart file written in    0.085 sec.

  401  0.00055    0.0   12.6   -31.71556   -31.71556   -31.71544   -31.71489  0.0000  0.0000  0.0000  0.0000
  402  0.00087    0.0   74.6   -31.71647   -31.71647   -31.71576   -31.71489  0.0000  0.0000  0.0000  0.0000
  403  0.00148    0.0  187.2   -31.71816   -31.71816   -31.71638   -31.71490  0.0000  0.0000  0.0000  0.0000
  404  0.00235    0.0  343.6   -31.72053   -31.72053   -31.71726   -31.71491  0.0000  0.0000  0.0000  0.0000
  405  0.00341    0.0  537.1   -31.72344   -31.72344   -31.71834   -31.71493  0.0000  0.0000  0.0000  0.0000
  406  0.00457    0.0  761.6   -31.72676   -31.72676   -31.71952   -31.71495  0.0000  0.0000  0.0000  0.0000
  407  0.00575    0.0 1011.4   -31.73033   -31.73033   -31.72072   -31.71497  0.0000  0.0000  0.0000  0.0000
  408  0.00686    0.0 1280.1   -31.73402   -31.73402   -31.72186   -31.71499  0.0000  0.0000  0.0000  0.0000
  409  0.00785    0.0 1559.0   -31.73768   -31.73768   -31.72287   -31.71502  0.0000  0.0000  0.0000  0.0000

 * Physical Quantities at step:   410

   from rhoofr: total integrated electronic density
   spin up
   in g-space =    7.000000   in r-space =   7.000000
   spin down
   in g-space =    5.000000   in r-space =   5.000000


                total energy =      -31.74116 Hartree a.u.
              kinetic energy =       13.43176 Hartree a.u.
        electrostatic energy =      -28.14932 Hartree a.u.
                         esr =        0.49823 Hartree a.u.
                       eself =       28.72384 Hartree a.u.
      pseudopotential energy =      -17.17146 Hartree a.u.
  n-l pseudopotential energy =        7.03442 Hartree a.u.
 exchange-correlation energy =       -6.88656 Hartree a.u.
           average potential =        0.00000 Hartree a.u.



   Eigenvalues (eV), kp =   1 , spin =  1

  -34.39  -19.77  -14.05  -14.05  -13.50   -6.23   -6.23

   Eigenvalues (eV), kp =   1 , spin =  2

  -33.18  -17.96  -12.56  -12.09  -12.09
 
   Allocated memory (kb) =    100856
 
   CELL_PARAMETERS
   12.00000000    0.00000000    0.00000000
    0.00000000   12.00000000    0.00000000
    0.00000000    0.00000000   12.00000000

   System Density [g/cm^3] :     0.2075


   Center of mass square displacement (a.u.):   0.016027

   Total stress (GPa)
       -0.19634226         0.08046373         1.00850923
        0.08046373        -0.29726055         0.54736331
        1.00850773         0.54736247         7.12131040
   ATOMIC_POSITIONS
   O    0.314741E+01  0.216581E+01  0.536418E+01
   O    0.342703E+01  0.232275E+01  0.751007E+01
 
   ATOMIC_VELOCITIES
   O   -0.124908E-03 -0.574222E-04 -0.761093E-03
   O    0.124908E-03  0.574222E-04  0.761093E-03
 
   Forces acting on atoms (au):
   O   -0.183411E-01 -0.104067E-01 -0.137642E+00
   O    0.184116E-01  0.988586E-02  0.138269E+00
 


   Partial temperatures (for each ionic specie) 
   Species  Temp (K)   Mean Square Displacement (a.u.)
        1    1836.35     0.0329
 
  nfi    ekinc  temph  tempp        etot      enthal       econs       econt    vnhh   xnhh0    vnhp   xnhp0
  410  0.00868    0.0 1836.3   -31.74116   -31.74116   -31.72372   -31.71504  0.0000  0.0000  0.0000  0.0000

   writing restart file: /scratch/daily_test/espresso/tmp//o2_54.save
   restart file written in    0.085 sec.



   Averaged Physical Quantities
                      accomulated      this run
   ekinc         :        0.22853       0.00623 (AU)
   ekin          :       13.50065      13.19693 (AU)
   epot          :      -51.49444     -51.86027 (AU)
   total energy  :      -31.08311     -31.73425 (AU)
   temperature   :      656.25571    1369.65147 (K )
   enthalpy      :      -31.08311     -31.73425 (AU)
   econs         :      -31.07688     -31.72124 (AU)
   pressure      :        4.60656      -0.01259 (Gpa)
   volume        :     1728.00000    1728.00000 (AU)


     initialize   :      7.10s CPU      7.14s WALL (       1 calls)
     total_time   :     82.98s CPU     84.45s WALL (     100 calls)
     formf        :      0.27s CPU      0.27s WALL (       1 calls)
     rhoofr       :     22.09s CPU     22.14s WALL (     100 calls)
     vofrho       :     53.10s CPU     54.35s WALL (     100 calls)
     dforce       :      2.56s CPU      2.55s WALL (     600 calls)
     calphi       :      0.05s CPU      0.05s WALL (     100 calls)
     ortho        :      0.19s CPU      0.19s WALL (     100 calls)
     ortho_iter   :      0.01s CPU      0.01s WALL (     200 calls)
     rsg          :      0.01s CPU      0.00s WALL (     200 calls)
     rhoset       :      0.02s CPU      0.02s WALL (     200 calls)
     updatc       :      0.02s CPU      0.02s WALL (     200 calls)
     newd         :      3.85s CPU      3.86s WALL (     100 calls)
     calbec       :      0.00s CPU      0.00s WALL (     101 calls)
     prefor       :      0.03s CPU      0.03s WALL (     201 calls)
     strucf       :      0.06s CPU      0.06s WALL (     101 calls)
     nlfl         :      0.00s CPU      0.00s WALL (     100 calls)
     nlfq         :      0.18s CPU      0.19s WALL (     100 calls)
     rhov         :      1.53s CPU      1.53s WALL (     100 calls)
     nlsm1        :      0.12s CPU      0.12s WALL (     301 calls)
     nlsm2        :      0.18s CPU      0.18s WALL (     100 calls)
     fft          :     18.46s CPU     18.48s WALL (    2300 calls)
     ffts         :      0.65s CPU      0.66s WALL (     200 calls)
     fftw         :      3.29s CPU      3.29s WALL (    1800 calls)
     fftb         :      2.70s CPU      2.65s WALL (    6200 calls)
 
 
 
     CP           :  1m30.18s CPU     1m31.70s WALL

 
   This run was terminated on:  11:55:31  30Aug2010            

=------------------------------------------------------------------------------=
   JOB DONE.
=------------------------------------------------------------------------------=
