 ANIMSTEPS   5
 CRYSTAL 
 PRIMVEC 
  5.7269022594  0.0000000000  0.0000000000
  0.0000000000  5.7269022594  0.0000000000
  0.0000000000  0.0000000000 12.0000047284
 PRIMCOORD   1
    5  1
Al    0.0000000000    0.0000000000    0.0000000000   -0.0000000000   -0.0000000000   -0.0000000000
Al    2.8634511297    0.0000000000    0.0000000000    0.0000000000   -0.0000000000   -0.0000000000
Al    0.0000000000    2.8634511297    0.0000000000    0.0000000000    0.0000000000   -0.0000000000
Al    2.8634511297    2.8634511297    0.0000000000   -0.0000000000    0.0000000000    0.0000000000
 H    0.0000000000    0.0000000000    1.6460341083   -0.0000000000   -0.0000000000   -0.0004068264
 PRIMCOORD   2
    5  1
Al    0.0000000000    0.0000000000    0.0000000000    0.0000000000    0.0000000000   -0.0000000000
Al    2.8634511297    0.0000000000    0.0000000000   -0.0000000000    0.0000000000    0.0000000000
Al    0.0000000000    2.8634511297    0.0000000000    0.0000000000   -0.0000000000    0.0000000000
Al    2.8634511297    2.8634511297    0.0000000000   -0.0000000000   -0.0000000000    0.0000000000
 H    0.7395885192    0.7395885192    1.3188285491    0.0000000000    0.0000000000    0.0001643194
 PRIMCOORD   3
    5  1
Al    0.0000000000    0.0000000000    0.0000000000    0.0000000000    0.0000000000    0.0000000000
Al    2.8634511297    0.0000000000    0.0000000000   -0.0000000000    0.0000000000    0.0000000000
Al    0.0000000000    2.8634511297    0.0000000000    0.0000000000   -0.0000000000    0.0000000000
Al    2.8634511297    2.8634511297    0.0000000000   -0.0000000000   -0.0000000000    0.0000000000
 H    1.4317256020    1.4317256020    0.8106562787    0.0000000000    0.0000000000   -0.0014102573
 PRIMCOORD   4
    5  1
Al    0.0000000000    0.0000000000    0.0000000000    0.0000000000    0.0000000000    0.0000000000
Al    2.8634511297    0.0000000000    0.0000000000   -0.0000000000    0.0000000000    0.0000000000
Al    0.0000000000    2.8634511297    0.0000000000    0.0000000000   -0.0000000000    0.0000000000
Al    2.8634511297    2.8634511297    0.0000000000   -0.0000000000   -0.0000000000   -0.0000000000
 H    2.1238625509    2.1238625509    1.3188285215   -0.0000000000   -0.0000000000    0.0001643140
 PRIMCOORD   5
    5  1
Al    0.0000000000    0.0000000000    0.0000000000   -0.0000000000    0.0000000000    0.0000000000
Al    2.8634511297    0.0000000000    0.0000000000    0.0000000000   -0.0000000000   -0.0000000000
Al    0.0000000000    2.8634511297    0.0000000000   -0.0000000000   -0.0000000000   -0.0000000000
Al    2.8634511297    2.8634511297    0.0000000000    0.0000000000   -0.0000000000   -0.0000000000
 H    2.8634511297    2.8634511297    1.6460341083    0.0000000000    0.0000000000   -0.0004064807
