 ANIMSTEPS   5
 CRYSTAL 
 PRIMVEC 
  5.7269022844  0.0000000000  0.0000000000
  0.0000000000  5.7269022844  0.0000000000
  0.0000000000  0.0000000000 12.0000047808
 PRIMCOORD   1
    5  1
Al    0.0000000000    0.0000000000    0.0000000000   -0.0000000000   -0.0000000000   -0.0000000000
Al    2.8634511422    0.0000000000    0.0000000000   -0.0000000000   -0.0000000000   -0.0000000000
Al    0.0000000000    2.8634511422    0.0000000000   -0.0000000000   -0.0000000000   -0.0000000000
Al    2.8634511422    2.8634511422    0.0000000000   -0.0000000000   -0.0000000000   -0.0000000000
 H    0.0000000000    0.0000000000    1.6460341155   -0.0000000000   -0.0000000000   -0.0011612633
 PRIMCOORD   2
    5  1
Al    0.0000000000    0.0000000000    0.0000000000   -0.0000000000   -0.0000000000   -0.0000000000
Al    2.8634511422    0.0000000000    0.0000000000   -0.0000000000   -0.0000000000   -0.0000000000
Al    0.0000000000    2.8634511422    0.0000000000   -0.0000000000   -0.0000000000   -0.0000000000
Al    2.8634511422    2.8634511422    0.0000000000   -0.0000000000   -0.0000000000   -0.0000000000
 H    0.7397936591    0.7397936591    1.3167613339   -0.0000000000   -0.0000000000   -0.0001498443
 PRIMCOORD   3
    5  1
Al    0.0000000000    0.0000000000    0.0000000000   -0.0000000000   -0.0000000000   -0.0000000000
Al    2.8634511422    0.0000000000    0.0000000000   -0.0000000000   -0.0000000000   -0.0000000000
Al    0.0000000000    2.8634511422    0.0000000000   -0.0000000000   -0.0000000000   -0.0000000000
Al    2.8634511422    2.8634511422    0.0000000000   -0.0000000000   -0.0000000000   -0.0000000000
 H    1.4317065234    1.4317065234    0.8154357220   -0.0000000000   -0.0000000000   -0.0015894258
 PRIMCOORD   4
    5  1
Al    0.0000000000    0.0000000000    0.0000000000   -0.0000000000   -0.0000000000   -0.0000000000
Al    2.8634511422    0.0000000000    0.0000000000   -0.0000000000   -0.0000000000   -0.0000000000
Al    0.0000000000    2.8634511422    0.0000000000   -0.0000000000   -0.0000000000   -0.0000000000
Al    2.8634511422    2.8634511422    0.0000000000   -0.0000000000   -0.0000000000   -0.0000000000
 H    2.1236160113    2.1236160113    1.3166006708   -0.0000000000   -0.0000000000   -0.0001791889
 PRIMCOORD   5
    5  1
Al    0.0000000000    0.0000000000    0.0000000000   -0.0000000000   -0.0000000000   -0.0000000000
Al    2.8634511422    0.0000000000    0.0000000000   -0.0000000000   -0.0000000000   -0.0000000000
Al    0.0000000000    2.8634511422    0.0000000000   -0.0000000000   -0.0000000000   -0.0000000000
Al    2.8634511422    2.8634511422    0.0000000000   -0.0000000000   -0.0000000000   -0.0000000000
 H    2.8634511422    2.8634511422    1.6460341155   -0.0000000000   -0.0000000000   -0.0011711426
