 ANIMSTEPS   5
 CRYSTAL 
 PRIMVEC 
  5.7269022594  0.0000000000  0.0000000000
  0.0000000000  5.7269022594  0.0000000000
  0.0000000000  0.0000000000 12.0000047284
 PRIMCOORD   1
    5  1
Al    0.0000000000    0.0000000000    0.0000000000   -0.0000000000   -0.0000000000   -0.0000000000
Al    2.8634511297    0.0000000000    0.0000000000    0.0000000000    0.0000000000   -0.0000000000
Al    0.0000000000    2.8634511297    0.0000000000    0.0000000000    0.0000000000   -0.0000000000
Al    2.8634511297    2.8634511297    0.0000000000    0.0000000000    0.0000000000    0.0000000000
 H    0.0000000000    0.0000000000    1.6460341083   -0.0000000000    0.0000000000   -0.0007259365
 PRIMCOORD   2
    5  1
Al    0.0000000000    0.0000000000    0.0000000000    0.0000000000    0.0000000000   -0.0000000000
Al    2.8634511297    0.0000000000    0.0000000000   -0.0000000000    0.0000000000    0.0000000000
Al    0.0000000000    2.8634511297    0.0000000000    0.0000000000   -0.0000000000    0.0000000000
Al    2.8634511297    2.8634511297    0.0000000000   -0.0000000000   -0.0000000000    0.0000000000
 H    0.7386713235    0.7386713235    1.3184203969    0.0000000000    0.0000000000    0.0002945749
 PRIMCOORD   3
    5  1
Al    0.0000000000    0.0000000000    0.0000000000    0.0000000000    0.0000000000    0.0000000000
Al    2.8634511297    0.0000000000    0.0000000000   -0.0000000000    0.0000000000    0.0000000000
Al    0.0000000000    2.8634511297    0.0000000000    0.0000000000   -0.0000000000    0.0000000000
Al    2.8634511297    2.8634511297    0.0000000000   -0.0000000000   -0.0000000000    0.0000000000
 H    1.4318598094    1.4318598094    0.8113801883    0.0000000000    0.0000000000   -0.0014000161
 PRIMCOORD   4
    5  1
Al    0.0000000000    0.0000000000    0.0000000000    0.0000000000    0.0000000000    0.0000000000
Al    2.8634511297    0.0000000000    0.0000000000   -0.0000000000    0.0000000000    0.0000000000
Al    0.0000000000    2.8634511297    0.0000000000    0.0000000000   -0.0000000000    0.0000000000
Al    2.8634511297    2.8634511297    0.0000000000   -0.0000000000   -0.0000000000   -0.0000000000
 H    2.1245948361    2.1245948361    1.3183107172   -0.0000000000   -0.0000000000    0.0002500819
 PRIMCOORD   5
    5  1
Al    0.0000000000    0.0000000000    0.0000000000    0.0000000000    0.0000000000    0.0000000000
Al    2.8634511297    0.0000000000    0.0000000000   -0.0000000000    0.0000000000   -0.0000000000
Al    0.0000000000    2.8634511297    0.0000000000    0.0000000000   -0.0000000000   -0.0000000000
Al    2.8634511297    2.8634511297    0.0000000000   -0.0000000000   -0.0000000000   -0.0000000000
 H    2.8634511297    2.8634511297    1.6460341083   -0.0000000000    0.0000000000   -0.0007219900
