
     Program NEB v.6.5 starts on 19May2020 at 14:41:54 

     This program is part of the open-source Quantum ESPRESSO suite
     for quantum simulation of materials; please cite
         "P. Giannozzi et al., J. Phys.:Condens. Matter 21 395502 (2009);
         "P. Giannozzi et al., J. Phys.:Condens. Matter 29 465901 (2017);
          URL http://www.quantum-espresso.org", 
     in publications or presentations arising from this work. More details at
     http://www.quantum-espresso.org/quote

     Parallel version (MPI & OpenMP), running on       4 processor cores
     Number of MPI processes:                 4
     Threads/MPI process:                     1

     MPI processes distributed on     1 nodes
     R & G space division:  proc/nbgrp/npool/nimage =       4
     Fft bands division:     nmany     =       1

     parsing_file_name: Al001+H_FCP_vp05.in
     Reading input from pw_1.in
     Reading input from pw_2.in

     initial path length           =  7.6525 bohr
     initial inter-image distance  =  1.9131 bohr

     string_method                 =    neb
     restart_mode                  =    from_scratch
     opt_scheme                    =    broyden
     num_of_images                 =    5
     nstep_path                    =    50
     CI_scheme                     =    no-CI
     first_last_opt                =    F
     use_freezing                  =    F
     ds                            =    1.0000 a.u.
     k_max                         =    0.1000 a.u.
     k_min                         =    0.1000 a.u.
     suggested k_max               =    0.6169 a.u.
     suggested k_min               =    0.6169 a.u.
     path_thr                      =    0.0500 eV / A

     >>>>>>>>>>> FCP NEB is activated <<<<<<<<<<<
     target Fermi energy           =   -4.0036 eV
     fcp_scheme                    =    coupled
     fcp_thr                       =    0.0200 V

     ------------------------------ iteration   1 ------------------------------

     tcpu =      0.2    self-consistency for image   1
     tcpu =      6.1    self-consistency for image   2
     tcpu =     15.9    self-consistency for image   3
     tcpu =     23.8    self-consistency for image   4
     tcpu =     32.7    self-consistency for image   5

     activation energy (->) =   0.538569 eV
     activation energy (<-) =   0.538567 eV

     image        energy (eV)        error (eV/A)        frozen

         1       -689.3122598            0.019331            T
         2       -689.1735801            1.154765            F
         3       -688.7736903            1.067877            F
         4       -689.1735843            1.157108            F
         5       -689.3122577            0.019356            T

     image     Fermi (eV)    charge (e)     error (V)     DOS (e/V)

         1      -4.503017      0.000000      0.499417      3.75E+00
         2      -4.460607      0.000000      0.457007      3.84E+00
         3      -4.466224      0.000000      0.462624      3.94E+00
         4      -4.463000      0.000000      0.459400      3.84E+00
         5      -4.503472      0.000000      0.499872      3.75E+00

     path length          =  7.653 bohr
     inter-image distance =  1.913 bohr

     ------------------------------ iteration   2 ------------------------------

     tcpu =     39.0    self-consistency for image   2
     tcpu =     42.9    self-consistency for image   3
     tcpu =     46.6    self-consistency for image   4

     activation energy (->) =   0.524780 eV
     activation energy (<-) =   0.524778 eV

     image        energy (eV)        error (eV/A)        frozen

         1       -689.3122598            0.019331            T
         2       -689.1891738            1.119368            F
         3       -688.7874795            1.049929            F
         4       -689.1891944            1.116605            F
         5       -689.3122577            0.019356            T

     image     Fermi (eV)    charge (e)     error (V)     DOS (e/V)

         1      -4.503017      0.000000      0.499417      3.75E+00
         2      -4.143179     -0.013805      0.139579      3.86E+00
         3      -4.142106     -0.013975      0.138506      3.97E+00
         4      -4.142993     -0.013878      0.139393      3.86E+00
         5      -4.503472      0.000000      0.499872      3.75E+00

     path length          =  7.653 bohr
     inter-image distance =  1.913 bohr

     ------------------------------ iteration   3 ------------------------------

     tcpu =     49.7    self-consistency for image   2
     tcpu =     56.0    self-consistency for image   3
     tcpu =     64.1    self-consistency for image   4

     activation energy (->) =   0.277921 eV
     activation energy (<-) =   0.277919 eV

     image        energy (eV)        error (eV/A)        frozen

         1       -689.3122598            0.019331            T
         2       -689.4243652            0.468021            F
         3       -689.0343388            0.853352            F
         4       -689.4240724            0.470029            F
         5       -689.3122577            0.019356            T

     image     Fermi (eV)    charge (e)     error (V)     DOS (e/V)

         1      -4.503017      0.000000      0.499417      3.75E+00
         2      -2.486166     -0.082346      1.517434      3.78E+00
         3      -2.513732     -0.081988      1.489868      4.05E+00
         4      -2.487101     -0.082327      1.516499      3.78E+00
         5      -4.503472      0.000000      0.499872      3.75E+00

     path length          =  7.726 bohr
     inter-image distance =  1.931 bohr

     ------------------------------ iteration   4 ------------------------------

     tcpu =     70.6    self-consistency for image   2
     tcpu =     78.5    self-consistency for image   3
     tcpu =     86.0    self-consistency for image   4

     activation energy (->) =   0.159117 eV
     activation energy (<-) =   0.159115 eV

     image        energy (eV)        error (eV/A)        frozen

         1       -689.3122598            0.019331            T
         2       -689.4032902            0.540049            F
         3       -689.1531426            0.680414            F
         4       -689.4036629            0.533969            F
         5       -689.3122577            0.019356            T

     image     Fermi (eV)    charge (e)     error (V)     DOS (e/V)

         1      -4.503017      0.000000      0.499417      3.75E+00
         2      -2.800031     -0.063851      1.203569      3.51E+00
         3      -2.794263     -0.064504      1.209337      3.87E+00
         4      -2.801250     -0.063797      1.202350      3.51E+00
         5      -4.503472      0.000000      0.499872      3.75E+00

     path length          =  7.919 bohr
     inter-image distance =  1.980 bohr

     ------------------------------ iteration   5 ------------------------------

     tcpu =     94.1    self-consistency for image   2
     tcpu =     99.7    self-consistency for image   3
     tcpu =    105.3    self-consistency for image   4

     activation energy (->) =   0.219324 eV
     activation energy (<-) =   0.219321 eV

     image        energy (eV)        error (eV/A)        frozen

         1       -689.3122598            0.019331            T
         2       -689.3835804            0.237158            F
         3       -689.0929362            0.737654            F
         4       -689.3835533            0.235452            F
         5       -689.3122577            0.019356            T

     image     Fermi (eV)    charge (e)     error (V)     DOS (e/V)

         1      -4.503017      0.000000      0.499417      3.75E+00
         2      -3.568158     -0.030475      0.435442      3.48E+00
         3      -3.560242     -0.030935      0.443358      3.78E+00
         4      -3.573516     -0.030463      0.430084      3.48E+00
         5      -4.503472      0.000000      0.499872      3.75E+00

     path length          =  7.861 bohr
     inter-image distance =  1.965 bohr

     ------------------------------ iteration   6 ------------------------------

     tcpu =    109.3    self-consistency for image   2
     tcpu =    112.1    self-consistency for image   3
     tcpu =    115.6    self-consistency for image   4

     activation energy (->) =   0.212245 eV
     activation energy (<-) =   0.212243 eV

     image        energy (eV)        error (eV/A)        frozen

         1       -689.3122598            0.019331            T
         2       -689.3742177            0.301149            F
         3       -689.1000147            0.720673            F
         4       -689.3745034            0.302037            F
         5       -689.3122577            0.019356            T

     image     Fermi (eV)    charge (e)     error (V)     DOS (e/V)

         1      -4.503017      0.000000      0.499417      3.75E+00
         2      -3.794845     -0.020314      0.208755      3.44E+00
         3      -3.782109     -0.020614      0.221491      3.73E+00
         4      -3.792836     -0.020414      0.210764      3.44E+00
         5      -4.503472      0.000000      0.499872      3.75E+00

     path length          =  7.875 bohr
     inter-image distance =  1.969 bohr

     ------------------------------ iteration   7 ------------------------------

     tcpu =    118.7    self-consistency for image   2
     tcpu =    122.1    self-consistency for image   3
     tcpu =    125.3    self-consistency for image   4

     activation energy (->) =   0.209023 eV
     activation energy (<-) =   0.209021 eV

     image        energy (eV)        error (eV/A)        frozen

         1       -689.3122598            0.019331            T
         2       -689.3716668            0.290207            F
         3       -689.1032367            0.712072            F
         4       -689.3719180            0.283174            F
         5       -689.3122577            0.019356            T

     image     Fermi (eV)    charge (e)     error (V)     DOS (e/V)

         1      -4.503017      0.000000      0.499417      3.75E+00
         2      -3.971746     -0.012707      0.031854      3.42E+00
         3      -3.960715     -0.012555      0.042885      3.69E+00
         4      -3.969437     -0.012736      0.034163      3.43E+00
         5      -4.503472      0.000000      0.499872      3.75E+00

     path length          =  7.872 bohr
     inter-image distance =  1.968 bohr

     ------------------------------ iteration   8 ------------------------------

     tcpu =    128.7    self-consistency for image   2
     tcpu =    133.8    self-consistency for image   3
     tcpu =    142.0    self-consistency for image   4

     activation energy (->) =   0.073882 eV
     activation energy (<-) =   0.073880 eV

     image        energy (eV)        error (eV/A)        frozen

         1       -689.3122598            0.019331            T
         2       -689.3872119            0.379998            F
         3       -689.2383781            0.476410            F
         4       -689.3885276            0.377632            F
         5       -689.3122577            0.019356            T

     image     Fermi (eV)    charge (e)     error (V)     DOS (e/V)

         1      -4.503017      0.000000      0.499417      3.75E+00
         2      -5.119758      0.035358      1.116158      3.39E+00
         3      -5.195399      0.044382      1.191799      3.25E+00
         4      -5.155241      0.037085      1.151641      3.39E+00
         5      -4.503472      0.000000      0.499872      3.75E+00

     path length          =  7.933 bohr
     inter-image distance =  1.983 bohr

     ------------------------------ iteration   9 ------------------------------

     tcpu =    148.0    self-consistency for image   2
     tcpu =    152.0    self-consistency for image   3
     tcpu =    157.5    self-consistency for image   4

     activation energy (->) =   0.084822 eV
     activation energy (<-) =   0.084820 eV

     image        energy (eV)        error (eV/A)        frozen

         1       -689.3122598            0.019331            T
         2       -689.3728652            0.395472            F
         3       -689.2274374            0.428033            F
         4       -689.3729774            0.393695            F
         5       -689.3122577            0.019356            T

     image     Fermi (eV)    charge (e)     error (V)     DOS (e/V)

         1      -4.503017      0.000000      0.499417      3.75E+00
         2      -4.374941      0.003011      0.371341      3.49E+00
         3      -4.397086      0.010386      0.393486      3.38E+00
         4      -4.389432      0.003740      0.385832      3.49E+00
         5      -4.503472      0.000000      0.499872      3.75E+00

     path length          =  7.957 bohr
     inter-image distance =  1.989 bohr

     ------------------------------ iteration  10 ------------------------------

     tcpu =    161.6    self-consistency for image   2
     tcpu =    164.5    self-consistency for image   3
     tcpu =    169.9    self-consistency for image   4

     activation energy (->) =   0.071174 eV
     activation energy (<-) =   0.071172 eV

     image        energy (eV)        error (eV/A)        frozen

         1       -689.3122598            0.019331            T
         2       -689.3721171            0.445152            F
         3       -689.2410859            0.371584            F
         4       -689.3722104            0.443412            F
         5       -689.3122577            0.019356            T

     image     Fermi (eV)    charge (e)     error (V)     DOS (e/V)

         1      -4.503017      0.000000      0.499417      3.75E+00
         2      -4.202531     -0.004834      0.198931      3.52E+00
         3      -4.214126      0.002940      0.210526      3.38E+00
         4      -4.211611     -0.004432      0.208011      3.52E+00
         5      -4.503472      0.000000      0.499872      3.75E+00

     path length          =  7.999 bohr
     inter-image distance =  2.000 bohr

     ------------------------------ iteration  11 ------------------------------

     tcpu =    174.1    self-consistency for image   2
     tcpu =    177.8    self-consistency for image   3
     tcpu =    181.2    self-consistency for image   4

     activation energy (->) =   0.081086 eV
     activation energy (<-) =   0.081084 eV

     image        energy (eV)        error (eV/A)        frozen

         1       -689.3122598            0.019331            T
         2       -689.3730605            0.383289            F
         3       -689.2311742            0.410840            F
         4       -689.3730972            0.381827            F
         5       -689.3122577            0.019356            T

     image     Fermi (eV)    charge (e)     error (V)     DOS (e/V)

         1      -4.503017      0.000000      0.499417      3.75E+00
         2      -4.215662     -0.003746      0.212062      3.51E+00
         3      -4.233268      0.003419      0.229668      3.41E+00
         4      -4.225584     -0.003310      0.221984      3.51E+00
         5      -4.503472      0.000000      0.499872      3.75E+00

     path length          =  7.969 bohr
     inter-image distance =  1.992 bohr

     ------------------------------ iteration  12 ------------------------------

     tcpu =    184.5    self-consistency for image   2
     tcpu =    187.0    self-consistency for image   3
     tcpu =    191.0    self-consistency for image   4

     activation energy (->) =   0.079154 eV
     activation energy (<-) =   0.079152 eV

     image        energy (eV)        error (eV/A)        frozen

         1       -689.3122598            0.019331            T
         2       -689.3748625            0.341938            F
         3       -689.2331058            0.396129            F
         4       -689.3749267            0.340646            F
         5       -689.3122577            0.019356            T

     image     Fermi (eV)    charge (e)     error (V)     DOS (e/V)

         1      -4.503017      0.000000      0.499417      3.75E+00
         2      -4.045584     -0.010970      0.041984      3.53E+00
         3      -4.055592     -0.004402      0.051992      3.44E+00
         4      -4.046287     -0.010872      0.042687      3.52E+00
         5      -4.503472      0.000000      0.499872      3.75E+00

     path length          =  7.973 bohr
     inter-image distance =  1.993 bohr

     ------------------------------ iteration  13 ------------------------------

     tcpu =    194.2    self-consistency for image   2
     tcpu =    200.0    self-consistency for image   3
     tcpu =    206.1    self-consistency for image   4

     activation energy (->) =   0.050245 eV
     activation energy (<-) =   0.050243 eV

     image        energy (eV)        error (eV/A)        frozen

         1       -689.3122598            0.019331            T
         2       -689.3911042            0.082463            F
         3       -689.2620145            0.325526            F
         4       -689.3915732            0.079892            F
         5       -689.3122577            0.019356            T

     image     Fermi (eV)    charge (e)     error (V)     DOS (e/V)

         1      -4.503017      0.000000      0.499417      3.75E+00
         2      -3.496275     -0.034656      0.507325      3.56E+00
         3      -3.410618     -0.032246      0.592982      3.52E+00
         4      -3.483893     -0.035213      0.519707      3.56E+00
         5      -4.503472      0.000000      0.499872      3.75E+00

     path length          =  8.026 bohr
     inter-image distance =  2.006 bohr

     ------------------------------ iteration  14 ------------------------------

     tcpu =    215.0    self-consistency for image   2
     tcpu =    218.4    self-consistency for image   3
     tcpu =    222.2    self-consistency for image   4

     activation energy (->) =   0.059458 eV
     activation energy (<-) =   0.059456 eV

     image        energy (eV)        error (eV/A)        frozen

         1       -689.3122598            0.019331            T
         2       -689.3816151            0.078146            F
         3       -689.2528019            0.322431            F
         4       -689.3816684            0.075798            F
         5       -689.3122577            0.019356            T

     image     Fermi (eV)    charge (e)     error (V)     DOS (e/V)

         1      -4.503017      0.000000      0.499417      3.75E+00
         2      -3.847544     -0.019064      0.156056      3.52E+00
         3      -3.820773     -0.014097      0.182827      3.44E+00
         4      -3.845811     -0.019237      0.157789      3.52E+00
         5      -4.503472      0.000000      0.499872      3.75E+00

     path length          =  8.027 bohr
     inter-image distance =  2.007 bohr

     ------------------------------ iteration  15 ------------------------------

     tcpu =    225.3    self-consistency for image   2
     tcpu =    230.6    self-consistency for image   3
     tcpu =    236.7    self-consistency for image   4

     activation energy (->) =   0.055205 eV
     activation energy (<-) =   0.055203 eV

     image        energy (eV)        error (eV/A)        frozen

         1       -689.3122598            0.019331            T
         2       -689.3781141            0.159431            F
         3       -689.2570543            0.335403            F
         4       -689.3782787            0.157872            F
         5       -689.3122577            0.019356            T

     image     Fermi (eV)    charge (e)     error (V)     DOS (e/V)

         1      -4.503017      0.000000      0.499417      3.75E+00
         2      -4.622880      0.014395      0.619280      3.43E+00
         3      -4.720154      0.024828      0.716554      3.25E+00
         4      -4.632364      0.014798      0.628764      3.43E+00
         5      -4.503472      0.000000      0.499872      3.75E+00

     path length          =  8.026 bohr
     inter-image distance =  2.006 bohr

     broyden uphill step : history is reset


     ------------------------------ iteration  16 ------------------------------

     tcpu =    243.2    self-consistency for image   2
     tcpu =    246.5    self-consistency for image   3
     tcpu =    251.9    self-consistency for image   4

     activation energy (->) =   0.060978 eV
     activation energy (<-) =   0.060976 eV

     image        energy (eV)        error (eV/A)        frozen

         1       -689.3122598            0.019331            T
         2       -689.3762364            0.148105            F
         3       -689.2512817            0.326062            F
         4       -689.3762547            0.146524            F
         5       -689.3122577            0.019356            T

     image     Fermi (eV)    charge (e)     error (V)     DOS (e/V)

         1      -4.503017      0.000000      0.499417      3.75E+00
         2      -4.194690     -0.004312      0.191090      3.48E+00
         3      -4.216646      0.003182      0.213046      3.35E+00
         4      -4.196865     -0.004196      0.193265      3.48E+00
         5      -4.503472      0.000000      0.499872      3.75E+00

     path length          =  8.030 bohr
     inter-image distance =  2.007 bohr

     ------------------------------ iteration  17 ------------------------------

     tcpu =    255.2    self-consistency for image   2
     tcpu =    260.6    self-consistency for image   3
     tcpu =    266.7    self-consistency for image   4

     activation energy (->) =   0.000002 eV
     activation energy (<-) =   0.000000 eV

     image        energy (eV)        error (eV/A)        frozen

         1       -689.3122598            0.019331            T
         2       -689.4481544            0.021490            F
         3       -689.3355566            0.237339            F
         4       -689.4495405            0.019545            F
         5       -689.3122577            0.019356            T

     image     Fermi (eV)    charge (e)     error (V)     DOS (e/V)

         1      -4.503017      0.000000      0.499417      3.75E+00
         2      -2.508360     -0.078742      1.495240      3.65E+00
         3      -2.336294     -0.079799      1.667306      3.69E+00
         4      -2.491076     -0.079473      1.512524      3.65E+00
         5      -4.503472      0.000000      0.499872      3.75E+00

     path length          =  8.084 bohr
     inter-image distance =  2.021 bohr

     ------------------------------ iteration  18 ------------------------------

     tcpu =    272.3    self-consistency for image   2
     tcpu =    277.0    self-consistency for image   3
     tcpu =    283.3    self-consistency for image   4

     activation energy (->) =   0.026679 eV
     activation energy (<-) =   0.026677 eV

     image        energy (eV)        error (eV/A)        frozen

         1       -689.3122598            0.019331            T
         2       -689.3989087            0.057190            F
         3       -689.2855806            0.221580            F
         4       -689.3992228            0.054725            F
         5       -689.3122577            0.019356            T

     image     Fermi (eV)    charge (e)     error (V)     DOS (e/V)

         1      -4.503017      0.000000      0.499417      3.75E+00
         2      -3.319026     -0.042343      0.684574      3.56E+00
         3      -3.233437     -0.039206      0.770163      3.50E+00
         4      -3.311764     -0.042648      0.691836      3.56E+00
         5      -4.503472      0.000000      0.499872      3.75E+00

     path length          =  8.109 bohr
     inter-image distance =  2.027 bohr

     ------------------------------ iteration  19 ------------------------------

     tcpu =    288.3    self-consistency for image   2
     tcpu =    293.2    self-consistency for image   3
     tcpu =    299.1    self-consistency for image   4

     activation energy (->) =   0.040382 eV
     activation energy (<-) =   0.040380 eV

     image        energy (eV)        error (eV/A)        frozen

         1       -689.3122598            0.019331            T
         2       -689.3797853            0.098460            F
         3       -689.2718774            0.194608            F
         4       -689.3797742            0.095822            F
         5       -689.3122577            0.019356            T

     image     Fermi (eV)    charge (e)     error (V)     DOS (e/V)

         1      -4.503017      0.000000      0.499417      3.75E+00
         2      -4.068322     -0.008935      0.064722      3.47E+00
         3      -4.088444     -0.001526      0.084844      3.30E+00
         4      -4.069128     -0.008890      0.065528      3.47E+00
         5      -4.503472      0.000000      0.499872      3.75E+00

     path length          =  8.139 bohr
     inter-image distance =  2.035 bohr

     ------------------------------ iteration  20 ------------------------------

     tcpu =    303.8    self-consistency for image   2
     tcpu =    306.0    self-consistency for image   3
     tcpu =    309.1    self-consistency for image   4

     activation energy (->) =   0.039407 eV
     activation energy (<-) =   0.039405 eV

     image        energy (eV)        error (eV/A)        frozen

         1       -689.3122598            0.019331            T
         2       -689.3798278            0.092244            F
         3       -689.2728530            0.183117            F
         4       -689.3798177            0.090223            F
         5       -689.3122577            0.019356            T

     image     Fermi (eV)    charge (e)     error (V)     DOS (e/V)

         1      -4.503017      0.000000      0.499417      3.75E+00
         2      -4.067922     -0.008938      0.064322      3.46E+00
         3      -4.080021     -0.001944      0.076421      3.29E+00
         4      -4.068555     -0.008897      0.064955      3.46E+00
         5      -4.503472      0.000000      0.499872      3.75E+00

     path length          =  8.147 bohr
     inter-image distance =  2.037 bohr

     ------------------------------ iteration  21 ------------------------------

     tcpu =    311.2    self-consistency for image   2
     tcpu =    313.2    self-consistency for image   3
     tcpu =    315.3    self-consistency for image   4

     activation energy (->) =   0.038366 eV
     activation energy (<-) =   0.038364 eV

     image        energy (eV)        error (eV/A)        frozen

         1       -689.3122598            0.019331            T
         2       -689.3803530            0.070887            F
         3       -689.2738933            0.176435            F
         4       -689.3803559            0.069392            F
         5       -689.3122577            0.019356            T

     image     Fermi (eV)    charge (e)     error (V)     DOS (e/V)

         1      -4.503017      0.000000      0.499417      3.75E+00
         2      -4.011719     -0.011282      0.008119      3.47E+00
         3      -4.007122     -0.004841      0.003522      3.31E+00
         4      -4.011574     -0.011264      0.007974      3.47E+00
         5      -4.503472      0.000000      0.499872      3.75E+00

     path length          =  8.154 bohr
     inter-image distance =  2.038 bohr

     ------------------------------ iteration  22 ------------------------------

     tcpu =    317.1    self-consistency for image   2
     tcpu =    321.1    self-consistency for image   3
     tcpu =    328.6    self-consistency for image   4

     activation energy (->) =   0.020933 eV
     activation energy (<-) =   0.020931 eV

     image        energy (eV)        error (eV/A)        frozen

         1       -689.3122598            0.019331            T
         2       -689.3800855            0.539573            F
         3       -689.2913266            0.038053            F
         4       -689.3803314            0.524644            F
         5       -689.3122577            0.019356            T

     image     Fermi (eV)    charge (e)     error (V)     DOS (e/V)

         1      -4.503017      0.000000      0.499417      3.75E+00
         2      -3.598979     -0.029500      0.404621      3.49E+00
         3      -3.547958     -0.024393      0.455642      3.24E+00
         4      -3.601751     -0.029427      0.401849      3.49E+00
         5      -4.503472      0.000000      0.499872      3.75E+00

     path length          =  8.390 bohr
     inter-image distance =  2.098 bohr

     ------------------------------ iteration  23 ------------------------------

     tcpu =    333.4    self-consistency for image   2
     tcpu =    336.6    self-consistency for image   3
     tcpu =    342.8    self-consistency for image   4

     activation energy (->) =   0.028532 eV
     activation energy (<-) =   0.028530 eV

     image        energy (eV)        error (eV/A)        frozen

         1       -689.3122598            0.019331            T
         2       -689.3788213            0.235433            F
         3       -689.2837273            0.051591            F
         4       -689.3789009            0.228889            F
         5       -689.3122577            0.019356            T

     image     Fermi (eV)    charge (e)     error (V)     DOS (e/V)

         1      -4.503017      0.000000      0.499417      3.75E+00
         2      -3.928129     -0.014896      0.075471      3.47E+00
         3      -3.919583     -0.008433      0.084017      3.24E+00
         4      -3.928049     -0.014894      0.075551      3.47E+00
         5      -4.503472      0.000000      0.499872      3.75E+00

     path length          =  8.282 bohr
     inter-image distance =  2.071 bohr

     ------------------------------ iteration  24 ------------------------------

     tcpu =    346.1    self-consistency for image   2
     tcpu =    348.9    self-consistency for image   3
     tcpu =    354.7    self-consistency for image   4

     activation energy (->) =   0.032123 eV
     activation energy (<-) =   0.032121 eV

     image        energy (eV)        error (eV/A)        frozen

         1       -689.3122598            0.019331            T
         2       -689.3794176            0.065570            F
         3       -689.2801363            0.106572            F
         4       -689.3794242            0.064033            F
         5       -689.3122577            0.019356            T

     image     Fermi (eV)    charge (e)     error (V)     DOS (e/V)

         1      -4.503017      0.000000      0.499417      3.75E+00
         2      -4.038084     -0.010179      0.034484      3.46E+00
         3      -4.034471     -0.003408      0.030871      3.25E+00
         4      -4.038342     -0.010168      0.034742      3.46E+00
         5      -4.503472      0.000000      0.499872      3.75E+00

     path length          =  8.226 bohr
     inter-image distance =  2.057 bohr

     ------------------------------ iteration  25 ------------------------------

     tcpu =    357.4    self-consistency for image   2
     tcpu =    359.3    self-consistency for image   3
     tcpu =    362.2    self-consistency for image   4

     activation energy (->) =   0.031515 eV
     activation energy (<-) =   0.031513 eV

     image        energy (eV)        error (eV/A)        frozen

         1       -689.3122598            0.019331            T
         2       -689.3796491            0.077931            F
         3       -689.2807444            0.095369            F
         4       -689.3796606            0.076069            F
         5       -689.3122577            0.019356            T

     image     Fermi (eV)    charge (e)     error (V)     DOS (e/V)

         1      -4.503017      0.000000      0.499417      3.75E+00
         2      -4.008911     -0.011397      0.005311      3.46E+00
         3      -4.011005     -0.004540      0.007405      3.25E+00
         4      -4.008990     -0.011394      0.005390      3.46E+00
         5      -4.503472      0.000000      0.499872      3.75E+00

     path length          =  8.235 bohr
     inter-image distance =  2.059 bohr

     ------------------------------ iteration  26 ------------------------------

     tcpu =    364.1    self-consistency for image   2
     tcpu =    366.0    self-consistency for image   3
     tcpu =    367.5    self-consistency for image   4

     activation energy (->) =   0.031366 eV
     activation energy (<-) =   0.031364 eV

     image        energy (eV)        error (eV/A)        frozen

         1       -689.3122598            0.019331            T
         2       -689.3797818            0.070839            F
         3       -689.2808935            0.099720            F
         4       -689.3797920            0.069319            F
         5       -689.3122577            0.019356            T

     image     Fermi (eV)    charge (e)     error (V)     DOS (e/V)

         1      -4.503017      0.000000      0.499417      3.75E+00
         2      -4.005877     -0.011564      0.002277      3.46E+00
         3      -4.002249     -0.004776      0.001351      3.25E+00
         4      -4.005863     -0.011564      0.002263      3.46E+00
         5      -4.503472      0.000000      0.499872      3.75E+00

     path length          =  8.237 bohr
     inter-image distance =  2.059 bohr

     ------------------------------ iteration  27 ------------------------------

     tcpu =    369.6    self-consistency for image   2
     tcpu =    373.6    self-consistency for image   3
     tcpu =    378.9    self-consistency for image   4

     activation energy (->) =   0.028400 eV
     activation energy (<-) =   0.028398 eV

     image        energy (eV)        error (eV/A)        frozen

         1       -689.3122598            0.019331            T
         2       -689.3826351            0.169838            F
         3       -689.2838594            0.037009            F
         4       -689.3826244            0.161123            F
         5       -689.3122577            0.019356            T

     image     Fermi (eV)    charge (e)     error (V)     DOS (e/V)

         1      -4.503017      0.000000      0.499417      3.75E+00
         2      -3.920451     -0.015107      0.083149      3.47E+00
         3      -4.001609     -0.004609      0.001991      3.20E+00
         4      -3.920658     -0.015105      0.082942      3.47E+00
         5      -4.503472      0.000000      0.499872      3.75E+00

     path length          =  8.319 bohr
     inter-image distance =  2.080 bohr

     ------------------------------ iteration  28 ------------------------------

     tcpu =    382.8    self-consistency for image   2
     tcpu =    385.6    self-consistency for image   3
     tcpu =    388.9    self-consistency for image   4

     activation energy (->) =   0.029756 eV
     activation energy (<-) =   0.029754 eV

     image        energy (eV)        error (eV/A)        frozen

         1       -689.3122598            0.019331            T
         2       -689.3810496            0.034129            F
         3       -689.2825034            0.068005            F
         4       -689.3810399            0.031501            F
         5       -689.3122577            0.019356            T

     image     Fermi (eV)    charge (e)     error (V)     DOS (e/V)

         1      -4.503017      0.000000      0.499417      3.75E+00
         2      -3.992937     -0.012054      0.010663      3.46E+00
         3      -4.006302     -0.004663      0.002702      3.23E+00
         4      -3.992868     -0.012056      0.010732      3.46E+00
         5      -4.503472      0.000000      0.499872      3.75E+00

     path length          =  8.273 bohr
     inter-image distance =  2.068 bohr

     ------------------------------ iteration  29 ------------------------------

     tcpu =    391.8    self-consistency for image   2
     tcpu =    393.7    self-consistency for image   3
     tcpu =    395.3    self-consistency for image   4

     activation energy (->) =   0.029604 eV
     activation energy (<-) =   0.029602 eV

     image        energy (eV)        error (eV/A)        frozen

         1       -689.3122598            0.019331            T
         2       -689.3809938            0.035124            F
         3       -689.2826559            0.071804            F
         4       -689.3809828            0.032732            F
         5       -689.3122577            0.019356            T

     image     Fermi (eV)    charge (e)     error (V)     DOS (e/V)

         1      -4.503017      0.000000      0.499417      3.75E+00
         2      -3.998725     -0.011778      0.004875      3.46E+00
         3      -3.997788     -0.004772      0.005812      3.23E+00
         4      -3.998766     -0.011778      0.004834      3.46E+00
         5      -4.503472      0.000000      0.499872      3.75E+00

     path length          =  8.276 bohr
     inter-image distance =  2.069 bohr

     ------------------------------ iteration  30 ------------------------------

     tcpu =    396.9    self-consistency for image   2
     tcpu =    398.8    self-consistency for image   3
     tcpu =    400.5    self-consistency for image   4

     activation energy (->) =   0.029646 eV
     activation energy (<-) =   0.029644 eV

     image        energy (eV)        error (eV/A)        frozen

         1       -689.3122598            0.019331            T
         2       -689.3809115            0.028365            F
         3       -689.2826141            0.067448            F
         4       -689.3809022            0.026285            F
         5       -689.3122577            0.019356            T

     image     Fermi (eV)    charge (e)     error (V)     DOS (e/V)

         1      -4.503017      0.000000      0.499417      3.75E+00
         2      -4.001795     -0.011689      0.001805      3.46E+00
         3      -4.000349     -0.004710      0.003251      3.23E+00
         4      -4.001809     -0.011690      0.001791      3.46E+00
         5      -4.503472      0.000000      0.499872      3.75E+00

     path length          =  8.275 bohr
     inter-image distance =  2.069 bohr

     ------------------------------ iteration  31 ------------------------------

     tcpu =    402.3    self-consistency for image   2
     tcpu =    403.8    self-consistency for image   3
     tcpu =    405.8    self-consistency for image   4

     activation energy (->) =   0.029596 eV
     activation energy (<-) =   0.029594 eV

     image        energy (eV)        error (eV/A)        frozen

         1       -689.3122598            0.019331            T
         2       -689.3858323            0.018334            F
         3       -689.2826636            0.066412            F
         4       -689.3869184            0.017127            F
         5       -689.3122577            0.019356            T

     image     Fermi (eV)    charge (e)     error (V)     DOS (e/V)

         1      -4.503017      0.000000      0.499417      3.75E+00
         2      -4.006713     -0.011541      0.003113      3.46E+00
         3      -4.004670     -0.004494      0.001070      3.23E+00
         4      -4.006896     -0.011543      0.003296      3.46E+00
         5      -4.503472      0.000000      0.499872      3.75E+00

     path length          =  8.276 bohr
     inter-image distance =  2.069 bohr

     ------------------------------ iteration  32 ------------------------------

     tcpu =    407.2    self-consistency for image   2
     tcpu =    409.9    self-consistency for image   3
     tcpu =    413.2    self-consistency for image   4

     activation energy (->) =   0.029289 eV
     activation energy (<-) =   0.029287 eV

     image        energy (eV)        error (eV/A)        frozen

         1       -689.3122598            0.019331            T
         2       -689.3804071            0.038672            F
         3       -689.2829705            0.058782            F
         4       -689.3804334            0.035988            F
         5       -689.3122577            0.019356            T

     image     Fermi (eV)    charge (e)     error (V)     DOS (e/V)

         1      -4.503017      0.000000      0.499417      3.75E+00
         2      -4.004355     -0.011609      0.000755      3.46E+00
         3      -4.016437     -0.004039      0.012837      3.22E+00
         4      -4.003378     -0.011650      0.000222      3.46E+00
         5      -4.503472      0.000000      0.499872      3.75E+00

     path length          =  8.284 bohr
     inter-image distance =  2.071 bohr

     ------------------------------ iteration  33 ------------------------------

     tcpu =    415.8    self-consistency for image   2
     tcpu =    417.2    self-consistency for image   3
     tcpu =    418.5    self-consistency for image   4

     activation energy (->) =   0.033240 eV
     activation energy (<-) =   0.033237 eV

     image        energy (eV)        error (eV/A)        frozen

         1       -689.3122598            0.019331            T
         2       -689.3827232            0.034737            F
         3       -689.2790202            0.057523            F
         4       -689.3818580            0.032578            F
         5       -689.3122577            0.019356            T

     image     Fermi (eV)    charge (e)     error (V)     DOS (e/V)

         1      -4.503017      0.000000      0.499417      3.75E+00
         2      -4.003845     -0.011601      0.000245      3.46E+00
         3      -4.004213     -0.004420      0.000613      3.22E+00
         4      -4.003604     -0.011612      0.000004      3.46E+00
         5      -4.503472      0.000000      0.499872      3.75E+00

     path length          =  8.284 bohr
     inter-image distance =  2.071 bohr

     ------------------------------ iteration  34 ------------------------------

     tcpu =    420.0    self-consistency for image   2
     tcpu =    422.4    self-consistency for image   3
     tcpu =    425.5    self-consistency for image   4

     activation energy (->) =   0.029486 eV
     activation energy (<-) =   0.029484 eV

     image        energy (eV)        error (eV/A)        frozen

         1       -689.3122598            0.019331            T
         2       -689.3808100            0.011118            F
         3       -689.2827735            0.064166            F
         4       -689.3808064            0.010117            F
         5       -689.3122577            0.019356            T

     image     Fermi (eV)    charge (e)     error (V)     DOS (e/V)

         1      -4.503017      0.000000      0.499417      3.75E+00
         2      -4.002315     -0.011650      0.001285      3.46E+00
         3      -4.002333     -0.004566      0.001267      3.22E+00
         4      -4.002285     -0.011651      0.001315      3.46E+00
         5      -4.503472      0.000000      0.499872      3.75E+00

     path length          =  8.279 bohr
     inter-image distance =  2.070 bohr

     ------------------------------ iteration  35 ------------------------------

     tcpu =    428.0    self-consistency for image   2
     tcpu =    430.4    self-consistency for image   3
     tcpu =    433.5    self-consistency for image   4

     activation energy (->) =   0.029288 eV
     activation energy (<-) =   0.029286 eV

     image        energy (eV)        error (eV/A)        frozen

         1       -689.3122598            0.019331            T
         2       -689.3805174            0.025312            F
         3       -689.2829717            0.061927            F
         4       -689.3805306            0.023776            F
         5       -689.3122577            0.019356            T

     image     Fermi (eV)    charge (e)     error (V)     DOS (e/V)

         1      -4.503017      0.000000      0.499417      3.75E+00
         2      -4.004514     -0.011609      0.000914      3.46E+00
         3      -4.006573     -0.004451      0.002973      3.22E+00
         4      -4.004147     -0.011617      0.000547      3.46E+00
         5      -4.503472      0.000000      0.499872      3.75E+00

     path length          =  8.283 bohr
     inter-image distance =  2.071 bohr

     ------------------------------ iteration  36 ------------------------------

     tcpu =    435.7    self-consistency for image   2
     tcpu =    437.2    self-consistency for image   3
     tcpu =    438.5    self-consistency for image   4

     activation energy (->) =   0.016228 eV
     activation energy (<-) =   0.016226 eV

     image        energy (eV)        error (eV/A)        frozen

         1       -689.3122598            0.019331            T
         2       -689.3851486            0.019599            F
         3       -689.2960317            0.060557            F
         4       -689.3843215            0.018590            F
         5       -689.3122577            0.019356            T

     image     Fermi (eV)    charge (e)     error (V)     DOS (e/V)

         1      -4.503017      0.000000      0.499417      3.75E+00
         2      -4.003122     -0.011637      0.000478      3.46E+00
         3      -4.003429     -0.004541      0.000171      3.22E+00
         4      -4.003303     -0.011635      0.000297      3.46E+00
         5      -4.503472      0.000000      0.499872      3.75E+00

     path length          =  8.284 bohr
     inter-image distance =  2.071 bohr

     ------------------------------ iteration  37 ------------------------------

     tcpu =    440.1    self-consistency for image   2
     tcpu =    441.9    self-consistency for image   3
     tcpu =    444.2    self-consistency for image   4

     activation energy (->) =   0.029163 eV
     activation energy (<-) =   0.029161 eV

     image        energy (eV)        error (eV/A)        frozen

         1       -689.3122598            0.019331            T
         2       -689.3807988            0.005454            F
         3       -689.2830965            0.057407            F
         4       -689.3807989            0.005700            F
         5       -689.3122577            0.019356            T

     image     Fermi (eV)    charge (e)     error (V)     DOS (e/V)

         1      -4.503017      0.000000      0.499417      3.75E+00
         2      -4.002864     -0.011559      0.000736      3.46E+00
         3      -4.002303     -0.004531      0.001297      3.22E+00
         4      -4.002488     -0.011587      0.001112      3.46E+00
         5      -4.503472      0.000000      0.499872      3.75E+00

     path length          =  8.287 bohr
     inter-image distance =  2.072 bohr

     ------------------------------ iteration  38 ------------------------------

     tcpu =    446.1    self-consistency for image   2
     tcpu =    447.9    self-consistency for image   3
     tcpu =    449.9    self-consistency for image   4

     activation energy (->) =   0.029110 eV
     activation energy (<-) =   0.029108 eV

     image        energy (eV)        error (eV/A)        frozen

         1       -689.3122598            0.019331            T
         2       -689.3808493            0.012775            F
         3       -689.2831500            0.056336            F
         4       -689.3808454            0.011188            F
         5       -689.3122577            0.019356            T

     image     Fermi (eV)    charge (e)     error (V)     DOS (e/V)

         1      -4.503017      0.000000      0.499417      3.75E+00
         2      -4.004271     -0.011511      0.000671      3.46E+00
         3      -4.004033     -0.004484      0.000433      3.22E+00
         4      -4.004097     -0.011531      0.000497      3.46E+00
         5      -4.503472      0.000000      0.499872      3.75E+00

     path length          =  8.289 bohr
     inter-image distance =  2.072 bohr

     ------------------------------ iteration  39 ------------------------------

     tcpu =    451.6    self-consistency for image   2
     tcpu =    453.2    self-consistency for image   3
     tcpu =    455.5    self-consistency for image   4

     activation energy (->) =   0.029072 eV
     activation energy (<-) =   0.029070 eV

     image        energy (eV)        error (eV/A)        frozen

         1       -689.3122598            0.019331            T
         2       -689.3838628            0.010430            F
         3       -689.2831881            0.054057            F
         4       -689.3842843            0.009142            F
         5       -689.3122577            0.019356            T

     image     Fermi (eV)    charge (e)     error (V)     DOS (e/V)

         1      -4.503017      0.000000      0.499417      3.75E+00
         2      -4.004152     -0.011537      0.000552      3.46E+00
         3      -4.004189     -0.004504      0.000589      3.22E+00
         4      -4.003946     -0.011550      0.000346      3.46E+00
         5      -4.503472      0.000000      0.499872      3.75E+00

     path length          =  8.290 bohr
     inter-image distance =  2.073 bohr

     ------------------------------ iteration  40 ------------------------------

     tcpu =    457.1    self-consistency for image   2
     tcpu =    459.8    self-consistency for image   3
     tcpu =    462.6    self-consistency for image   4

     activation energy (->) =   0.028848 eV
     activation energy (<-) =   0.028846 eV

     image        energy (eV)        error (eV/A)        frozen

         1       -689.3122598            0.019331            T
         2       -689.3805223            0.039672            F
         3       -689.2834115            0.045044            F
         4       -689.3805200            0.036276            F
         5       -689.3122577            0.019356            T

     image     Fermi (eV)    charge (e)     error (V)     DOS (e/V)

         1      -4.503017      0.000000      0.499417      3.75E+00
         2      -3.998451     -0.011832      0.005149      3.46E+00
         3      -4.002046     -0.004764      0.001554      3.22E+00
         4      -4.000169     -0.011752      0.003431      3.46E+00
         5      -4.503472      0.000000      0.499872      3.75E+00

     path length          =  8.295 bohr
     inter-image distance =  2.074 bohr

     ---------------------------------------------------------------------------


     neb: convergence achieved in  40 iterations

     NEB          :   7m25.02s CPU   7m45.15s WALL


   This run was terminated on:  14:49:39  19May2020            

=------------------------------------------------------------------------------=
   JOB DONE.
=------------------------------------------------------------------------------=
