 ANIMSTEPS   5
 CRYSTAL 
 PRIMVEC 
  5.7269022844  0.0000000000  0.0000000000
  0.0000000000  5.7269022844  0.0000000000
  0.0000000000  0.0000000000 12.0000047808
 PRIMCOORD   1
    5  1
Al    0.0000000000    0.0000000000    0.0000000000    0.0000000000    0.0000000000    0.0000000000
Al    2.8634511422    0.0000000000    0.0000000000    0.0000000000    0.0000000000    0.0000000000
Al    0.0000000000    2.8634511422    0.0000000000    0.0000000000    0.0000000000    0.0000000000
Al    2.8634511422    2.8634511422    0.0000000000    0.0000000000    0.0000000000    0.0000000000
 H    0.0000000000    0.0000000000    1.6460341155    0.0000000000    0.0000000000   -0.0011927596
 PRIMCOORD   2
    5  1
Al    0.0000000000    0.0000000000    0.0000000000    0.0000000000    0.0000000000    0.0000000000
Al    2.8634511422    0.0000000000    0.0000000000    0.0000000000    0.0000000000    0.0000000000
Al    0.0000000000    2.8634511422    0.0000000000    0.0000000000    0.0000000000    0.0000000000
Al    2.8634511422    2.8634511422    0.0000000000    0.0000000000    0.0000000000    0.0000000000
 H    0.7451129791    0.7451129791    1.3139758316    0.0000000000    0.0000000000   -0.0004396584
 PRIMCOORD   3
    5  1
Al    0.0000000000    0.0000000000    0.0000000000    0.0000000000    0.0000000000    0.0000000000
Al    2.8634511422    0.0000000000    0.0000000000    0.0000000000    0.0000000000    0.0000000000
Al    0.0000000000    2.8634511422    0.0000000000    0.0000000000    0.0000000000    0.0000000000
Al    2.8634511422    2.8634511422    0.0000000000    0.0000000000    0.0000000000    0.0000000000
 H    1.4317371926    1.4317371926    0.8013965218    0.0000000000    0.0000000000   -0.0009497297
 PRIMCOORD   4
    5  1
Al    0.0000000000    0.0000000000    0.0000000000    0.0000000000    0.0000000000    0.0000000000
Al    2.8634511422    0.0000000000    0.0000000000    0.0000000000    0.0000000000    0.0000000000
Al    0.0000000000    2.8634511422    0.0000000000    0.0000000000    0.0000000000    0.0000000000
Al    2.8634511422    2.8634511422    0.0000000000    0.0000000000    0.0000000000    0.0000000000
 H    2.1182707721    2.1182707721    1.3139162419    0.0000000000    0.0000000000   -0.0004340328
 PRIMCOORD   5
    5  1
Al    0.0000000000    0.0000000000    0.0000000000    0.0000000000    0.0000000000    0.0000000000
Al    2.8634511422    0.0000000000    0.0000000000    0.0000000000    0.0000000000    0.0000000000
Al    0.0000000000    2.8634511422    0.0000000000    0.0000000000    0.0000000000    0.0000000000
Al    2.8634511422    2.8634511422    0.0000000000    0.0000000000    0.0000000000    0.0000000000
 H    2.8634511422    2.8634511422    1.6460341155    0.0000000000    0.0000000000   -0.0012134866
