
     Program NEB v.5.2.0 starts on 22Jul2015 at  6:51:56 

     This program is part of the open-source Quantum ESPRESSO suite
     for quantum simulation of materials; please cite
         "P. Giannozzi et al., J. Phys.:Condens. Matter 21 395502 (2009);
          URL http://www.quantum-espresso.org", 
     in publications or presentations arising from this work. More details at
     http://www.quantum-espresso.org/quote

     Parallel version (MPI), running on     1 processors
     Reading input from pw_1.in
     Reading input from pw_2.in

     initial path length           =  7.6525 bohr
     initial inter-image distance  =  1.9131 bohr

     string_method                 =    neb
     restart_mode                  =    from_scratch
     opt_scheme                    =    broyden
     num_of_images                 =    5
     nstep_path                    =    50
     CI_scheme                     =    no-CI
     first_last_opt                =    F
     use_freezing                  =    F
     ds                            =    1.0000 a.u.
     k_max                         =    0.1000 a.u.
     k_min                         =    0.1000 a.u.
     suggested k_max               =    0.6169 a.u.
     suggested k_min               =    0.6169 a.u.
     path_thr                      =    0.0500 eV / A
     target Fermi energy           =   -5.0239 eV
     Fermi_thr                     =    0.0136 V

     ------------------------------ iteration   1 ------------------------------

     tcpu =      0.1    self-consistency for image   1
     tcpu =     17.7    self-consistency for image   2
     tcpu =     38.7    self-consistency for image   3
     tcpu =     60.5    self-consistency for image   4
     tcpu =     81.7    self-consistency for image   5

     activation energy (->) =   0.533173 eV
     activation energy (<-) =   0.533404 eV

     image        energy (eV)        error (eV/A)        frozen

         1       -689.3160629            0.030649            T
         2       -689.1809855            1.170316            F
         3       -688.7828899            1.088409            F
         4       -689.1810972            1.170183            F
         5       -689.3162937            0.031527            T

     image  Fermi energy (eV)           error (V)    tot_charge

         1          -5.023811           -0.000131      0.021755
         2          -4.978871           -0.045072      0.021865
         3          -4.986842           -0.037101      0.021975
         4          -4.983991           -0.039952      0.022085
         5          -5.034345            0.010402      0.022195

     path length          =  7.653 bohr
     inter-image distance =  1.913 bohr

     ------------------------------ iteration   2 ------------------------------

     tcpu =     99.8    self-consistency for image   2
     tcpu =    109.7    self-consistency for image   3
     tcpu =    119.4    self-consistency for image   4

     activation energy (->) =   0.521290 eV
     activation energy (<-) =   0.521521 eV

     image        energy (eV)        error (eV/A)        frozen

         1       -689.3160629            0.030649            T
         2       -689.1946561            1.145939            F
         3       -688.7947729            1.077133            F
         4       -689.1947486            1.146244            F
         5       -689.3162937            0.031527            T

     image  Fermi energy (eV)           error (V)    tot_charge

         1          -5.023811           -0.000131      0.021755
         2          -4.977563           -0.046379      0.022196
         3          -4.985916           -0.038026      0.022248
         4          -4.981845           -0.042098      0.022379
         5          -5.034345            0.010402      0.022195

     path length          =  7.653 bohr
     inter-image distance =  1.913 bohr

     ------------------------------ iteration   3 ------------------------------

     tcpu =    128.7    self-consistency for image   2
     tcpu =    149.9    self-consistency for image   3
     tcpu =    175.6    self-consistency for image   4

     activation energy (->) =   0.347962 eV
     activation energy (<-) =   0.348193 eV

     image        energy (eV)        error (eV/A)        frozen

         1       -689.3160629            0.030649            T
         2       -689.3538379            0.520442            F
         3       -688.9681011            0.916359            F
         4       -689.3540306            0.521022            F
         5       -689.3162937            0.031527            T

     image  Fermi energy (eV)           error (V)    tot_charge

         1          -5.023811           -0.000131      0.021755
         2          -4.837840           -0.186103      0.020795
         3          -4.851053           -0.172890      0.021099
         4          -4.845846           -0.178097      0.021107
         5          -5.034345            0.010402      0.022195

     path length          =  7.726 bohr
     inter-image distance =  1.932 bohr

     ------------------------------ iteration   4 ------------------------------

     tcpu =    196.6    self-consistency for image   2
     tcpu =    219.7    self-consistency for image   3
     tcpu =    240.6    self-consistency for image   4

     activation energy (->) =   0.201136 eV
     activation energy (<-) =   0.201367 eV

     image        energy (eV)        error (eV/A)        frozen

         1       -689.3160629            0.030649            T
         2       -689.3631591            0.499222            F
         3       -689.1149270            0.719276            F
         4       -689.3631708            0.499807            F
         5       -689.3162937            0.031527            T

     image  Fermi energy (eV)           error (V)    tot_charge

         1          -5.023811           -0.000131      0.021755
         2          -4.796829           -0.227114      0.022661
         3          -4.792314           -0.231629      0.022572
         4          -4.799793           -0.224150      0.022772
         5          -5.034345            0.010402      0.022195

     path length          =  7.919 bohr
     inter-image distance =  1.980 bohr

     ------------------------------ iteration   5 ------------------------------

     tcpu =    263.6    self-consistency for image   2
     tcpu =    277.4    self-consistency for image   3
     tcpu =    289.6    self-consistency for image   4

     activation energy (->) =   0.220331 eV
     activation energy (<-) =   0.220561 eV

     image        energy (eV)        error (eV/A)        frozen

         1       -689.3160629            0.030649            T
         2       -689.3736929            0.283183            F
         3       -689.0957324            0.742176            F
         4       -689.3737265            0.283974            F
         5       -689.3162937            0.031527            T

     image  Fermi energy (eV)           error (V)    tot_charge

         1          -5.023811           -0.000131      0.021755
         2          -4.654287           -0.369656      0.015801
         3          -4.675250           -0.348693      0.016765
         4          -4.658502           -0.365440      0.016001
         5          -5.034345            0.010402      0.022195

     path length          =  7.873 bohr
     inter-image distance =  1.968 bohr

     ------------------------------ iteration   6 ------------------------------

     tcpu =    303.5    self-consistency for image   2
     tcpu =    314.4    self-consistency for image   3
     tcpu =    323.9    self-consistency for image   4

     activation energy (->) =   0.204961 eV
     activation energy (<-) =   0.205192 eV

     image        energy (eV)        error (eV/A)        frozen

         1       -689.3160629            0.030649            T
         2       -689.3764180            0.326123            F
         3       -689.1111015            0.737738            F
         4       -689.3764364            0.326608            F
         5       -689.3162937            0.031527            T

     image  Fermi energy (eV)           error (V)    tot_charge

         1          -5.023811           -0.000131      0.021755
         2          -4.902302           -0.121641      0.026967
         3          -4.908459           -0.115484      0.027298
         4          -4.904139           -0.119804      0.027040
         5          -5.034345            0.010402      0.022195

     path length          =  7.881 bohr
     inter-image distance =  1.970 bohr

     ------------------------------ iteration   7 ------------------------------

     tcpu =    334.9    self-consistency for image   2
     tcpu =    339.7    self-consistency for image   3
     tcpu =    349.0    self-consistency for image   4

     activation energy (->) =   0.194922 eV
     activation energy (<-) =   0.195152 eV

     image        energy (eV)        error (eV/A)        frozen

         1       -689.3160629            0.030649            T
         2       -689.3797077            0.306715            F
         3       -689.1211413            0.717033            F
         4       -689.3797087            0.308553            F
         5       -689.3162937            0.031527            T

     image  Fermi energy (eV)           error (V)    tot_charge

         1          -5.023811           -0.000131      0.021755
         2          -4.997263           -0.026679      0.030642
         3          -4.982726           -0.041217      0.030787
         4          -4.998251           -0.025691      0.030660
         5          -5.034345            0.010402      0.022195

     path length          =  7.877 bohr
     inter-image distance =  1.969 bohr

     ------------------------------ iteration   8 ------------------------------

     tcpu =    355.0    self-consistency for image   2
     tcpu =    373.6    self-consistency for image   3
     tcpu =    399.5    self-consistency for image   4

     activation energy (->) =   0.086325 eV
     activation energy (<-) =   0.086556 eV

     image        energy (eV)        error (eV/A)        frozen

         1       -689.3160629            0.030649            T
         2       -689.3854598            0.360079            F
         3       -689.2297379            0.459442            F
         4       -689.3854356            0.360606            F
         5       -689.3162937            0.031527            T

     image  Fermi energy (eV)           error (V)    tot_charge

         1          -5.023811           -0.000131      0.021755
         2          -5.051695            0.027752      0.031448
         3          -4.949142           -0.074800      0.032032
         4          -5.051243            0.027300      0.031436
         5          -5.034345            0.010402      0.022195

     path length          =  7.934 bohr
     inter-image distance =  1.984 bohr

     ------------------------------ iteration   9 ------------------------------

     tcpu =    417.6    self-consistency for image   2
     tcpu =    426.6    self-consistency for image   3
     tcpu =    443.2    self-consistency for image   4

     activation energy (->) =   0.072126 eV
     activation energy (<-) =   0.072357 eV

     image        energy (eV)        error (eV/A)        frozen

         1       -689.3160629            0.030649            T
         2       -689.3850136            0.410537            F
         3       -689.2439370            0.406501            F
         4       -689.3848516            0.410346            F
         5       -689.3162937            0.031527            T

     image  Fermi energy (eV)           error (V)    tot_charge

         1          -5.023811           -0.000131      0.021755
         2          -5.049723            0.025781      0.031037
         3          -4.881575           -0.142367      0.029772
         4          -5.044829            0.020886      0.031036
         5          -5.034345            0.010402      0.022195

     path length          =  7.971 bohr
     inter-image distance =  1.993 bohr

     ------------------------------ iteration  10 ------------------------------

     tcpu =    453.2    self-consistency for image   2
     tcpu =    462.1    self-consistency for image   3
     tcpu =    475.0    self-consistency for image   4

     activation energy (->) =   0.053071 eV
     activation energy (<-) =   0.053302 eV

     image        energy (eV)        error (eV/A)        frozen

         1       -689.3160629            0.030649            T
         2       -689.3834455            0.476030            F
         3       -689.2629920            0.341091            F
         4       -689.3834652            0.475801            F
         5       -689.3162937            0.031527            T

     image  Fermi energy (eV)           error (V)    tot_charge

         1          -5.023811           -0.000131      0.021755
         2          -5.038821            0.014878      0.030258
         3          -4.973722           -0.050221      0.034073
         4          -5.040733            0.016791      0.030405
         5          -5.034345            0.010402      0.022195

     path length          =  8.024 bohr
     inter-image distance =  2.006 bohr

     ------------------------------ iteration  11 ------------------------------

     tcpu =    483.8    self-consistency for image   2
     tcpu =    493.3    self-consistency for image   3
     tcpu =    509.5    self-consistency for image   4

     activation energy (->) =   0.061958 eV
     activation energy (<-) =   0.062188 eV

     image        energy (eV)        error (eV/A)        frozen

         1       -689.3160629            0.030649            T
         2       -689.3841144            0.400956            F
         3       -689.2541053            0.384216            F
         4       -689.3841616            0.401187            F
         5       -689.3162937            0.031527            T

     image  Fermi energy (eV)           error (V)    tot_charge

         1          -5.023811           -0.000131      0.021755
         2          -5.017998           -0.005944      0.029809
         3          -5.011546           -0.012397      0.035590
         4          -5.020427           -0.003516      0.029898
         5          -5.034345            0.010402      0.022195

     path length          =  7.988 bohr
     inter-image distance =  1.997 bohr

     ------------------------------ iteration  12 ------------------------------

     tcpu =    519.0    self-consistency for image   2
     tcpu =    525.4    self-consistency for image   3
     tcpu =    533.2    self-consistency for image   4

     activation energy (->) =   0.060223 eV
     activation energy (<-) =   0.060454 eV

     image        energy (eV)        error (eV/A)        frozen

         1       -689.3160629            0.030649            T
         2       -689.3846611            0.357913            F
         3       -689.2558399            0.379130            F
         4       -689.3846772            0.358059            F
         5       -689.3162937            0.031527            T

     image  Fermi energy (eV)           error (V)    tot_charge

         1          -5.023811           -0.000131      0.021755
         2          -5.018745           -0.005198      0.029937
         3          -5.021412           -0.002531      0.035964
         4          -5.020068           -0.003875      0.029985
         5          -5.034345            0.010402      0.022195

     path length          =  7.992 bohr
     inter-image distance =  1.998 bohr

     ------------------------------ iteration  13 ------------------------------

     tcpu =    539.6    self-consistency for image   2
     tcpu =    555.2    self-consistency for image   3
     tcpu =    573.4    self-consistency for image   4

     activation energy (->) =   0.045779 eV
     activation energy (<-) =   0.046010 eV

     image        energy (eV)        error (eV/A)        frozen

         1       -689.3160629            0.030649            T
         2       -689.3889595            0.104523            F
         3       -689.2702834            0.311166            F
         4       -689.3887938            0.104913            F
         5       -689.3162937            0.031527            T

     image  Fermi energy (eV)           error (V)    tot_charge

         1          -5.023811           -0.000131      0.021755
         2          -5.003830           -0.020113      0.030094
         3          -5.007501           -0.016441      0.036041
         4          -4.998366           -0.025576      0.029868
         5          -5.034345            0.010402      0.022195

     path length          =  8.042 bohr
     inter-image distance =  2.011 bohr

     ------------------------------ iteration  14 ------------------------------

     tcpu =    589.2    self-consistency for image   2
     tcpu =    595.5    self-consistency for image   3
     tcpu =    599.9    self-consistency for image   4

     activation energy (->) =   0.045875 eV
     activation energy (<-) =   0.046106 eV

     image        energy (eV)        error (eV/A)        frozen

         1       -689.3160629            0.030649            T
         2       -689.3887904            0.078035            F
         3       -689.2701879            0.314209            F
         4       -689.3888824            0.078524            F
         5       -689.3162937            0.031527            T

     image  Fermi energy (eV)           error (V)    tot_charge

         1          -5.023811           -0.000131      0.021755
         2          -4.999234           -0.024709      0.029882
         3          -5.006970           -0.016973      0.035950
         4          -5.002463           -0.021480      0.030006
         5          -5.034345            0.010402      0.022195

     path length          =  8.042 bohr
     inter-image distance =  2.010 bohr

     ------------------------------ iteration  15 ------------------------------

     tcpu =    606.2    self-consistency for image   2
     tcpu =    611.8    self-consistency for image   3
     tcpu =    616.0    self-consistency for image   4

     activation energy (->) =   0.050077 eV
     activation energy (<-) =   0.050308 eV

     image        energy (eV)        error (eV/A)        frozen

         1       -689.3160629            0.030649            T
         2       -689.3891505            0.079395            F
         3       -689.2659862            0.311168            F
         4       -689.3891574            0.079553            F
         5       -689.3162937            0.031527            T

     image  Fermi energy (eV)           error (V)    tot_charge

         1          -5.023811           -0.000131      0.021755
         2          -5.019739           -0.004203      0.030629
         3          -5.018882           -0.005060      0.036463
         4          -5.020142           -0.003800      0.030655
         5          -5.034345            0.010402      0.022195

     path length          =  8.042 bohr
     inter-image distance =  2.010 bohr

     ------------------------------ iteration  16 ------------------------------

     tcpu =    621.7    self-consistency for image   2
     tcpu =    627.6    self-consistency for image   3
     tcpu =    632.6    self-consistency for image   4

     activation energy (->) =   0.044702 eV
     activation energy (<-) =   0.044933 eV

     image        energy (eV)        error (eV/A)        frozen

         1       -689.3160629            0.030649            T
         2       -689.3892911            0.068703            F
         3       -689.2713604            0.308016            F
         4       -689.3892964            0.068818            F
         5       -689.3162937            0.031527            T

     image  Fermi energy (eV)           error (V)    tot_charge

         1          -5.023811           -0.000131      0.021755
         2          -5.016745           -0.007197      0.030756
         3          -5.022279           -0.001663      0.036616
         4          -5.017064           -0.006878      0.030770
         5          -5.034345            0.010402      0.022195

     path length          =  8.044 bohr
     inter-image distance =  2.011 bohr

     ------------------------------ iteration  17 ------------------------------

     tcpu =    638.6    self-consistency for image   2
     tcpu =    645.0    self-consistency for image   3
     tcpu =    652.7    self-consistency for image   4

     activation energy (->) =   0.043389 eV
     activation energy (<-) =   0.043620 eV

     image        energy (eV)        error (eV/A)        frozen

         1       -689.3160629            0.030649            T
         2       -689.3892031            0.064789            F
         3       -689.2726740            0.300476            F
         4       -689.3892170            0.064974            F
         5       -689.3162937            0.031527            T

     image  Fermi energy (eV)           error (V)    tot_charge

         1          -5.023811           -0.000131      0.021755
         2          -5.011723           -0.012219      0.030538
         3          -5.024694            0.000752      0.036666
         4          -5.012303           -0.011640      0.030562
         5          -5.034345            0.010402      0.022195

     path length          =  8.049 bohr
     inter-image distance =  2.012 bohr

     ------------------------------ iteration  18 ------------------------------

     tcpu =    659.1    self-consistency for image   2
     tcpu =    672.7    self-consistency for image   3
     tcpu =    692.7    self-consistency for image   4

     activation energy (->) =   0.027026 eV
     activation energy (<-) =   0.027257 eV

     image        energy (eV)        error (eV/A)        frozen

         1       -689.3160629            0.030649            T
         2       -689.3881173            0.130392            F
         3       -689.2890364            0.187404            F
         4       -689.3880388            0.131053            F
         5       -689.3162937            0.031527            T

     image  Fermi energy (eV)           error (V)    tot_charge

         1          -5.023811           -0.000131      0.021755
         2          -5.013103           -0.010840      0.030907
         3          -5.004852           -0.019091      0.036651
         4          -5.011151           -0.012792      0.030914
         5          -5.034345            0.010402      0.022195

     path length          =  8.145 bohr
     inter-image distance =  2.036 bohr

     ------------------------------ iteration  19 ------------------------------

     tcpu =    705.3    self-consistency for image   2
     tcpu =    713.4    self-consistency for image   3
     tcpu =    730.0    self-consistency for image   4

     activation energy (->) =   0.022260 eV
     activation energy (<-) =   0.022491 eV

     image        energy (eV)        error (eV/A)        frozen

         1       -689.3160629            0.030649            T
         2       -689.3866609            0.208514            F
         3       -689.2938029            0.136575            F
         4       -689.3861114            0.209849            F
         5       -689.3162937            0.031527            T

     image  Fermi energy (eV)           error (V)    tot_charge

         1          -5.023811           -0.000131      0.021755
         2          -5.017587           -0.006355      0.031235
         3          -5.000845           -0.023097      0.036666
         4          -5.000514           -0.023429      0.030527
         5          -5.034345            0.010402      0.022195

     path length          =  8.193 bohr
     inter-image distance =  2.048 bohr

     ------------------------------ iteration  20 ------------------------------

     tcpu =    738.2    self-consistency for image   2
     tcpu =    751.5    self-consistency for image   3
     tcpu =    769.3    self-consistency for image   4

     activation energy (->) =   0.017291 eV
     activation energy (<-) =   0.017522 eV

     image        energy (eV)        error (eV/A)        frozen

         1       -689.3160629            0.030649            T
         2       -689.3815400            0.357635            F
         3       -689.2987714            0.040200            F
         4       -689.3812726            0.358958            F
         5       -689.3162937            0.031527            T

     image  Fermi energy (eV)           error (V)    tot_charge

         1          -5.023811           -0.000131      0.021755
         2          -5.017099           -0.006844      0.031427
         3          -4.990342           -0.033601      0.036579
         4          -5.010946           -0.012997      0.031235
         5          -5.034345            0.010402      0.022195

     path length          =  8.292 bohr
     inter-image distance =  2.073 bohr

     ------------------------------ iteration  21 ------------------------------

     tcpu =    781.3    self-consistency for image   2
     tcpu =    789.8    self-consistency for image   3
     tcpu =    802.7    self-consistency for image   4

     activation energy (->) =   0.020237 eV
     activation energy (<-) =   0.020468 eV

     image        energy (eV)        error (eV/A)        frozen

         1       -689.3160629            0.030649            T
         2       -689.3859161            0.238621            F
         3       -689.2958257            0.104130            F
         4       -689.3861733            0.239904            F
         5       -689.3162937            0.031527            T

     image  Fermi energy (eV)           error (V)    tot_charge

         1          -5.023811           -0.000131      0.021755
         2          -5.019618           -0.004325      0.031220
         3          -4.995359           -0.028583      0.036856
         4          -5.029016            0.005073      0.031628
         5          -5.034345            0.010402      0.022195

     path length          =  8.223 bohr
     inter-image distance =  2.056 bohr

     ------------------------------ iteration  22 ------------------------------

     tcpu =    811.3    self-consistency for image   2
     tcpu =    817.6    self-consistency for image   3
     tcpu =    823.0    self-consistency for image   4

     activation energy (->) =   0.019210 eV
     activation energy (<-) =   0.019440 eV

     image        energy (eV)        error (eV/A)        frozen

         1       -689.3160629            0.030649            T
         2       -689.3863877            0.215595            F
         3       -689.2968533            0.109802            F
         4       -689.3866639            0.216692            F
         5       -689.3162937            0.031527            T

     image  Fermi energy (eV)           error (V)    tot_charge

         1          -5.023811           -0.000131      0.021755
         2          -5.013786           -0.010157      0.031089
         3          -5.020793           -0.003150      0.037720
         4          -5.023673           -0.000270      0.031518
         5          -5.034345            0.010402      0.022195

     path length          =  8.225 bohr
     inter-image distance =  2.056 bohr

     ------------------------------ iteration  23 ------------------------------

     tcpu =    829.3    self-consistency for image   2
     tcpu =    838.8    self-consistency for image   3
     tcpu =    847.6    self-consistency for image   4

     activation energy (->) =   0.018114 eV
     activation energy (<-) =   0.018344 eV

     image        energy (eV)        error (eV/A)        frozen

         1       -689.3160629            0.030649            T
         2       -689.3908836            0.002675            F
         3       -689.2979493            0.085335            F
         4       -689.3910381            0.003337            F
         5       -689.3162937            0.031527            T

     image  Fermi energy (eV)           error (V)    tot_charge

         1          -5.023811           -0.000131      0.021755
         2          -5.018670           -0.005273      0.031317
         3          -5.022694           -0.001248      0.037815
         4          -5.023537           -0.000406      0.031523
         5          -5.034345            0.010402      0.022195

     path length          =  8.251 bohr
     inter-image distance =  2.063 bohr

     ------------------------------ iteration  24 ------------------------------

     tcpu =    857.1    self-consistency for image   2
     tcpu =    861.1    self-consistency for image   3
     tcpu =    866.1    self-consistency for image   4

     activation energy (->) =   0.018108 eV
     activation energy (<-) =   0.018339 eV

     image        energy (eV)        error (eV/A)        frozen

         1       -689.3160629            0.030649            T
         2       -689.3778914            0.008039            F
         3       -689.2979549            0.085354            F
         4       -689.3774936            0.008663            F
         5       -689.3162937            0.031527            T

     image  Fermi energy (eV)           error (V)    tot_charge

         1          -5.023811           -0.000131      0.021755
         2          -5.023289           -0.000653      0.031476
         3          -5.021770           -0.002173      0.037853
         4          -5.022873           -0.001070      0.031511
         5          -5.034345            0.010402      0.022195

     path length          =  8.252 bohr
     inter-image distance =  2.063 bohr

     ------------------------------ iteration  25 ------------------------------

     tcpu =    870.1    self-consistency for image   2
     tcpu =    874.2    self-consistency for image   3
     tcpu =    878.7    self-consistency for image   4

     activation energy (->) =   0.018185 eV
     activation energy (<-) =   0.018415 eV

     image        energy (eV)        error (eV/A)        frozen

         1       -689.3160629            0.030649            T
         2       -689.3910618            0.004288            F
         3       -689.2978782            0.082765            F
         4       -689.3910876            0.005027            F
         5       -689.3162937            0.031527            T

     image  Fermi energy (eV)           error (V)    tot_charge

         1          -5.023811           -0.000131      0.021755
         2          -5.023290           -0.000652      0.031496
         3          -5.019028           -0.004915      0.037787
         4          -5.023993            0.000050      0.031531
         5          -5.034345            0.010402      0.022195

     path length          =  8.253 bohr
     inter-image distance =  2.063 bohr

     ------------------------------ iteration  26 ------------------------------

     tcpu =    883.0    self-consistency for image   2
     tcpu =    887.6    self-consistency for image   3
     tcpu =    895.2    self-consistency for image   4

     activation energy (->) =   0.017708 eV
     activation energy (<-) =   0.017939 eV

     image        energy (eV)        error (eV/A)        frozen

         1       -689.3160629            0.030649            T
         2       -689.3910260            0.003269            F
         3       -689.2983550            0.081327            F
         4       -689.3910495            0.002725            F
         5       -689.3162937            0.031527            T

     image  Fermi energy (eV)           error (V)    tot_charge

         1          -5.023811           -0.000131      0.021755
         2          -5.022135           -0.001807      0.031516
         3          -5.026568            0.002626      0.037905
         4          -5.022861           -0.001081      0.031530
         5          -5.034345            0.010402      0.022195

     path length          =  8.257 bohr
     inter-image distance =  2.064 bohr

     ------------------------------ iteration  27 ------------------------------

     tcpu =    899.9    self-consistency for image   2
     tcpu =    906.3    self-consistency for image   3
     tcpu =    929.1    self-consistency for image   4

     activation energy (->) =   0.017285 eV
     activation energy (<-) =   0.017516 eV

     image        energy (eV)        error (eV/A)        frozen

         1       -689.3160629            0.030649            T
         2       -689.3902097            0.228959            F
         3       -689.2987779            0.087681            F
         4       -689.3901443            0.240013            F
         5       -689.3162937            0.031527            T

     image  Fermi energy (eV)           error (V)    tot_charge

         1          -5.023811           -0.000131      0.021755
         2          -5.022385           -0.001558      0.031485
         3          -5.018111           -0.005832      0.037864
         4          -5.023618           -0.000324      0.031531
         5          -5.034345            0.010402      0.022195

     path length          =  8.472 bohr
     inter-image distance =  2.118 bohr

     ------------------------------ iteration  28 ------------------------------

     tcpu =    936.0    self-consistency for image   2
     tcpu =    942.3    self-consistency for image   3
     tcpu =    962.2    self-consistency for image   4

     activation energy (->) =   0.016028 eV
     activation energy (<-) =   0.016259 eV

     image        energy (eV)        error (eV/A)        frozen

         1       -689.3160629            0.030649            T
         2       -689.3908237            0.053219            F
         3       -689.3000350            0.033984            F
         4       -689.3908694            0.055516            F
         5       -689.3162937            0.031527            T

     image  Fermi energy (eV)           error (V)    tot_charge

         1          -5.023811           -0.000131      0.021755
         2          -5.020367           -0.003575      0.031438
         3          -5.022627           -0.001316      0.037892
         4          -5.022430           -0.001513      0.031531
         5          -5.034345            0.010402      0.022195

     path length          =  8.309 bohr
     inter-image distance =  2.077 bohr

     broyden uphill step : history is reset


     ------------------------------ iteration  29 ------------------------------

     tcpu =    968.6    self-consistency for image   2
     tcpu =    972.8    self-consistency for image   3
     tcpu =    979.2    self-consistency for image   4

     activation energy (->) =   0.016036 eV
     activation energy (<-) =   0.016267 eV

     image        energy (eV)        error (eV/A)        frozen

         1       -689.3160629            0.030649            T
         2       -689.4046070            0.047844            F
         3       -689.3000269            0.033146            F
         4       -689.4048208            0.049763            F
         5       -689.3162937            0.031527            T

     image  Fermi energy (eV)           error (V)    tot_charge

         1          -5.023811           -0.000131      0.021755
         2          -5.025852            0.001910      0.031521
         3          -5.022458           -0.001484      0.037900
         4          -5.025638            0.001695      0.031530
         5          -5.034345            0.010402      0.022195

     path length          =  8.309 bohr
     inter-image distance =  2.077 bohr

     ---------------------------------------------------------------------------


     neb: convergence achieved in  29 iterations

     NEB          : 17m15.85s CPU    16m23.49s WALL


   This run was terminated on:   7: 8:20  22Jul2015            

=------------------------------------------------------------------------------=
   JOB DONE.
=------------------------------------------------------------------------------=
