 ANIMSTEPS   5
 CRYSTAL 
 PRIMVEC 
  5.7269022844  0.0000000000  0.0000000000
  0.0000000000  5.7269022844  0.0000000000
  0.0000000000  0.0000000000 12.0000047808
 PRIMCOORD   1
    5  1
Al    0.0000000000    0.0000000000    0.0000000000   -0.0000000000    0.0000000000   -0.0000000000
Al    2.8634511422    0.0000000000    0.0000000000    0.0000000000    0.0000000000   -0.0000000000
Al    0.0000000000    2.8634511422    0.0000000000   -0.0000000000   -0.0000000000   -0.0000000000
Al    2.8634511422    2.8634511422    0.0000000000    0.0000000000   -0.0000000000    0.0000000000
 H    0.0000000000    0.0000000000    1.6460341155    0.0000000000    0.0000000000   -0.0007103882
 PRIMCOORD   2
    5  1
Al    0.0000000000    0.0000000000    0.0000000000    0.0000000000    0.0000000000   -0.0000000000
Al    2.8634511422    0.0000000000    0.0000000000   -0.0000000000    0.0000000000    0.0000000000
Al    0.0000000000    2.8634511422    0.0000000000    0.0000000000   -0.0000000000    0.0000000000
Al    2.8634511422    2.8634511422    0.0000000000   -0.0000000000   -0.0000000000    0.0000000000
 H    0.7368692713    0.7368692713    1.3205509127    0.0000000000    0.0000000000    0.0004403945
 PRIMCOORD   3
    5  1
Al    0.0000000000    0.0000000000    0.0000000000    0.0000000000    0.0000000000    0.0000000000
Al    2.8634511422    0.0000000000    0.0000000000   -0.0000000000    0.0000000000    0.0000000000
Al    0.0000000000    2.8634511422    0.0000000000    0.0000000000   -0.0000000000    0.0000000000
Al    2.8634511422    2.8634511422    0.0000000000   -0.0000000000   -0.0000000000    0.0000000000
 H    1.4318662340    1.4318662340    0.8192753984    0.0000000000    0.0000000000   -0.0016553242
 PRIMCOORD   4
    5  1
Al    0.0000000000    0.0000000000    0.0000000000    0.0000000000    0.0000000000    0.0000000000
Al    2.8634511422    0.0000000000    0.0000000000   -0.0000000000    0.0000000000    0.0000000000
Al    0.0000000000    2.8634511422    0.0000000000    0.0000000000   -0.0000000000    0.0000000000
Al    2.8634511422    2.8634511422    0.0000000000   -0.0000000000   -0.0000000000   -0.0000000000
 H    2.1263596791    2.1263596791    1.3204483336   -0.0000000000   -0.0000000000    0.0004119235
 PRIMCOORD   5
    5  1
Al    0.0000000000    0.0000000000    0.0000000000   -0.0000000000   -0.0000000000    0.0000000000
Al    2.8634511422    0.0000000000    0.0000000000    0.0000000000   -0.0000000000   -0.0000000000
Al    0.0000000000    2.8634511422    0.0000000000    0.0000000000    0.0000000000   -0.0000000000
Al    2.8634511422    2.8634511422    0.0000000000   -0.0000000000    0.0000000000   -0.0000000000
 H    2.8634511422    2.8634511422    1.6460341155    0.0000000000    0.0000000000   -0.0007113348
