 ANIMSTEPS   5
 CRYSTAL 
 PRIMVEC 
  5.7269022594  0.0000000000  0.0000000000
  0.0000000000  5.7269022594  0.0000000000
  0.0000000000  0.0000000000 12.0000047284
 PRIMCOORD   1
    5  1
Al    0.0000000000    0.0000000000    0.0000000000   -0.0000000000   -0.0000000000   -0.0000000000
Al    2.8634511297    0.0000000000    0.0000000000    0.0000000000    0.0000000000   -0.0000000000
Al    0.0000000000    2.8634511297    0.0000000000    0.0000000000    0.0000000000   -0.0000000000
Al    2.8634511297    2.8634511297    0.0000000000    0.0000000000    0.0000000000    0.0000000000
 H    0.0000000000    0.0000000000    1.6460341083   -0.0000000000    0.0000000000   -0.0007259365
 PRIMCOORD   2
    5  1
Al    0.0000000000    0.0000000000    0.0000000000    0.0000000000    0.0000000000   -0.0000000000
Al    2.8634511297    0.0000000000    0.0000000000   -0.0000000000    0.0000000000    0.0000000000
Al    0.0000000000    2.8634511297    0.0000000000    0.0000000000   -0.0000000000    0.0000000000
Al    2.8634511297    2.8634511297    0.0000000000   -0.0000000000   -0.0000000000    0.0000000000
 H    0.7444044775    0.7444044775    1.3127448453    0.0000000000    0.0000000000    0.0001756726
 PRIMCOORD   3
    5  1
Al    0.0000000000    0.0000000000    0.0000000000    0.0000000000    0.0000000000    0.0000000000
Al    2.8634511297    0.0000000000    0.0000000000   -0.0000000000    0.0000000000    0.0000000000
Al    0.0000000000    2.8634511297    0.0000000000    0.0000000000   -0.0000000000    0.0000000000
Al    2.8634511297    2.8634511297    0.0000000000   -0.0000000000   -0.0000000000    0.0000000000
 H    1.4316503343    1.4316503343    0.7961235849   -0.0000000000   -0.0000000000   -0.0006632545
 PRIMCOORD   4
    5  1
Al    0.0000000000    0.0000000000    0.0000000000    0.0000000000    0.0000000000    0.0000000000
Al    2.8634511297    0.0000000000    0.0000000000   -0.0000000000    0.0000000000    0.0000000000
Al    0.0000000000    2.8634511297    0.0000000000    0.0000000000   -0.0000000000    0.0000000000
Al    2.8634511297    2.8634511297    0.0000000000   -0.0000000000   -0.0000000000   -0.0000000000
 H    2.1190845672    2.1190845672    1.3125352566   -0.0000000000   -0.0000000000    0.0002015208
 PRIMCOORD   5
    5  1
Al    0.0000000000    0.0000000000    0.0000000000    0.0000000000    0.0000000000    0.0000000000
Al    2.8634511297    0.0000000000    0.0000000000   -0.0000000000    0.0000000000   -0.0000000000
Al    0.0000000000    2.8634511297    0.0000000000    0.0000000000   -0.0000000000   -0.0000000000
Al    2.8634511297    2.8634511297    0.0000000000   -0.0000000000   -0.0000000000   -0.0000000000
 H    2.8634511297    2.8634511297    1.6460341083   -0.0000000000    0.0000000000   -0.0007219900
