
     Program NEB v.6.5 starts on 19May2020 at 13:26: 7 

     This program is part of the open-source Quantum ESPRESSO suite
     for quantum simulation of materials; please cite
         "P. Giannozzi et al., J. Phys.:Condens. Matter 21 395502 (2009);
         "P. Giannozzi et al., J. Phys.:Condens. Matter 29 465901 (2017);
          URL http://www.quantum-espresso.org", 
     in publications or presentations arising from this work. More details at
     http://www.quantum-espresso.org/quote

     Parallel version (MPI & OpenMP), running on       4 processor cores
     Number of MPI processes:                 4
     Threads/MPI process:                     1

     MPI processes distributed on     1 nodes
     R & G space division:  proc/nbgrp/npool/nimage =       4
     Fft bands division:     nmany     =       1

     parsing_file_name: Al001+H_bc3.in
     Reading input from pw_1.in
     Reading input from pw_2.in

     initial path length           =  7.6525 bohr
     initial inter-image distance  =  1.9131 bohr

     string_method                 =    neb
     restart_mode                  =    from_scratch
     opt_scheme                    =    broyden
     num_of_images                 =    5
     nstep_path                    =    50
     CI_scheme                     =    no-CI
     first_last_opt                =    F
     use_freezing                  =    F
     ds                            =    1.0000 a.u.
     k_max                         =    0.1000 a.u.
     k_min                         =    0.1000 a.u.
     suggested k_max               =    0.6169 a.u.
     suggested k_min               =    0.6169 a.u.
     path_thr                      =    0.0500 eV / A

     ------------------------------ iteration   1 ------------------------------

     tcpu =      0.3    self-consistency for image   1
     tcpu =      6.8    self-consistency for image   2
     tcpu =     16.9    self-consistency for image   3
     tcpu =     24.5    self-consistency for image   4
     tcpu =     33.4    self-consistency for image   5

     activation energy (->) =   0.538569 eV
     activation energy (<-) =   0.538567 eV

     image        energy (eV)        error (eV/A)        frozen

         1       -689.3122598            0.019331            T
         2       -689.1735801            1.154765            F
         3       -688.7736903            1.067877            F
         4       -689.1735843            1.157108            F
         5       -689.3122577            0.019356            T

     path length          =  7.653 bohr
     inter-image distance =  1.913 bohr

     ------------------------------ iteration   2 ------------------------------

     tcpu =     39.5    self-consistency for image   2
     tcpu =     42.7    self-consistency for image   3
     tcpu =     46.5    self-consistency for image   4

     activation energy (->) =   0.527066 eV
     activation energy (<-) =   0.527064 eV

     image        energy (eV)        error (eV/A)        frozen

         1       -689.3122598            0.019331            T
         2       -689.1869449            1.131034            F
         3       -688.7851939            1.058860            F
         4       -689.1869699            1.129214            F
         5       -689.3122577            0.019356            T

     path length          =  7.653 bohr
     inter-image distance =  1.913 bohr

     ------------------------------ iteration   3 ------------------------------

     tcpu =     49.7    self-consistency for image   2
     tcpu =     56.3    self-consistency for image   3
     tcpu =     62.7    self-consistency for image   4

     activation energy (->) =   0.353601 eV
     activation energy (<-) =   0.353599 eV

     image        energy (eV)        error (eV/A)        frozen

         1       -689.3122598            0.019331            T
         2       -689.3475011            0.517690            F
         3       -688.9586583            0.908568            F
         4       -689.3473490            0.518857            F
         5       -689.3122577            0.019356            T

     path length          =  7.726 bohr
     inter-image distance =  1.932 bohr

     ------------------------------ iteration   4 ------------------------------

     tcpu =     69.1    self-consistency for image   2
     tcpu =     76.5    self-consistency for image   3
     tcpu =     83.0    self-consistency for image   4

     activation energy (->) =   0.206940 eV
     activation energy (<-) =   0.206938 eV

     image        energy (eV)        error (eV/A)        frozen

         1       -689.3122598            0.019331            T
         2       -689.3566583            0.498622            F
         3       -689.1053193            0.713454            F
         4       -689.3569398            0.496085            F
         5       -689.3122577            0.019356            T

     path length          =  7.919 bohr
     inter-image distance =  1.980 bohr

     ------------------------------ iteration   5 ------------------------------

     tcpu =     90.7    self-consistency for image   2
     tcpu =     94.6    self-consistency for image   3
     tcpu =     98.6    self-consistency for image   4

     activation energy (->) =   0.224414 eV
     activation energy (<-) =   0.224412 eV

     image        energy (eV)        error (eV/A)        frozen

         1       -689.3122598            0.019331            T
         2       -689.3702847            0.278775            F
         3       -689.0878458            0.740466            F
         4       -689.3704219            0.276398            F
         5       -689.3122577            0.019356            T

     path length          =  7.873 bohr
     inter-image distance =  1.968 bohr

     ------------------------------ iteration   6 ------------------------------

     tcpu =    103.1    self-consistency for image   2
     tcpu =    106.2    self-consistency for image   3
     tcpu =    108.8    self-consistency for image   4

     activation energy (->) =   0.213923 eV
     activation energy (<-) =   0.213921 eV

     image        energy (eV)        error (eV/A)        frozen

         1       -689.3122598            0.019331            T
         2       -689.3676534            0.324318            F
         3       -689.0983366            0.722060            F
         4       -689.3678195            0.323965            F
         5       -689.3122577            0.019356            T

     path length          =  7.881 bohr
     inter-image distance =  1.970 bohr

     ------------------------------ iteration   7 ------------------------------

     tcpu =    112.2    self-consistency for image   2
     tcpu =    115.0    self-consistency for image   3
     tcpu =    117.8    self-consistency for image   4

     activation energy (->) =   0.206571 eV
     activation energy (<-) =   0.206569 eV

     image        energy (eV)        error (eV/A)        frozen

         1       -689.3122598            0.019331            T
         2       -689.3682323            0.317241            F
         3       -689.1056886            0.710657            F
         4       -689.3683919            0.313384            F
         5       -689.3122577            0.019356            T

     path length          =  7.877 bohr
     inter-image distance =  1.969 bohr

     ------------------------------ iteration   8 ------------------------------

     tcpu =    120.6    self-consistency for image   2
     tcpu =    126.3    self-consistency for image   3
     tcpu =    133.5    self-consistency for image   4

     activation energy (->) =   0.072077 eV
     activation energy (<-) =   0.072075 eV

     image        energy (eV)        error (eV/A)        frozen

         1       -689.3122598            0.019331            T
         2       -689.3712315            0.539154            F
         3       -689.2401827            0.375341            F
         4       -689.3712804            0.537618            F
         5       -689.3122577            0.019356            T

     path length          =  7.996 bohr
     inter-image distance =  1.999 bohr

     ------------------------------ iteration   9 ------------------------------

     tcpu =    139.2    self-consistency for image   2
     tcpu =    142.4    self-consistency for image   3
     tcpu =    145.8    self-consistency for image   4

     activation energy (->) =   0.086227 eV
     activation energy (<-) =   0.086225 eV

     image        energy (eV)        error (eV/A)        frozen

         1       -689.3122598            0.019331            T
         2       -689.3730508            0.385748            F
         3       -689.2260325            0.430368            F
         4       -689.3730695            0.384675            F
         5       -689.3122577            0.019356            T

     path length          =  7.956 bohr
     inter-image distance =  1.989 bohr

     ------------------------------ iteration  10 ------------------------------

     tcpu =    148.9    self-consistency for image   2
     tcpu =    151.7    self-consistency for image   3
     tcpu =    155.1    self-consistency for image   4

     activation energy (->) =   0.076287 eV
     activation energy (<-) =   0.076285 eV

     image        energy (eV)        error (eV/A)        frozen

         1       -689.3122598            0.019331            T
         2       -689.3725761            0.424521            F
         3       -689.2359724            0.389639            F
         4       -689.3726113            0.423423            F
         5       -689.3122577            0.019356            T

     path length          =  7.982 bohr
     inter-image distance =  1.996 bohr

     ------------------------------ iteration  11 ------------------------------

     tcpu =    157.9    self-consistency for image   2
     tcpu =    160.6    self-consistency for image   3
     tcpu =    163.3    self-consistency for image   4

     activation energy (->) =   0.077532 eV
     activation energy (<-) =   0.077530 eV

     image        energy (eV)        error (eV/A)        frozen

         1       -689.3122598            0.019331            T
         2       -689.3732190            0.366497            F
         3       -689.2347279            0.396158            F
         4       -689.3732467            0.365647            F
         5       -689.3122577            0.019356            T

     path length          =  7.978 bohr
     inter-image distance =  1.995 bohr

     ------------------------------ iteration  12 ------------------------------

     tcpu =    166.0    self-consistency for image   2
     tcpu =    169.0    self-consistency for image   3
     tcpu =    172.7    self-consistency for image   4

     activation energy (->) =   0.072945 eV
     activation energy (<-) =   0.072943 eV

     image        energy (eV)        error (eV/A)        frozen

         1       -689.3122598            0.019331            T
         2       -689.3741792            0.273648            F
         3       -689.2393151            0.376091            F
         4       -689.3742047            0.273208            F
         5       -689.3122577            0.019356            T

     path length          =  7.991 bohr
     inter-image distance =  1.998 bohr

     ------------------------------ iteration  13 ------------------------------

     tcpu =    175.8    self-consistency for image   2
     tcpu =    180.3    self-consistency for image   3
     tcpu =    185.5    self-consistency for image   4

     activation energy (->) =   0.056572 eV
     activation energy (<-) =   0.056570 eV

     image        energy (eV)        error (eV/A)        frozen

         1       -689.3122598            0.019331            T
         2       -689.3772233            0.087286            F
         3       -689.2556878            0.303524            F
         4       -689.3772299            0.086210            F
         5       -689.3122577            0.019356            T

     path length          =  8.049 bohr
     inter-image distance =  2.012 bohr

     ------------------------------ iteration  14 ------------------------------

     tcpu =    190.1    self-consistency for image   2
     tcpu =    192.8    self-consistency for image   3
     tcpu =    195.7    self-consistency for image   4

     activation energy (->) =   0.055246 eV
     activation energy (<-) =   0.055244 eV

     image        energy (eV)        error (eV/A)        frozen

         1       -689.3122598            0.019331            T
         2       -689.3774542            0.093457            F
         3       -689.2570141            0.288226            F
         4       -689.3774586            0.092570            F
         5       -689.3122577            0.019356            T

     path length          =  8.054 bohr
     inter-image distance =  2.014 bohr

     ------------------------------ iteration  15 ------------------------------

     tcpu =    198.5    self-consistency for image   2
     tcpu =    200.8    self-consistency for image   3
     tcpu =    202.3    self-consistency for image   4

     activation energy (->) =   0.153397 eV
     activation energy (<-) =   0.153395 eV

     image        energy (eV)        error (eV/A)        frozen

         1       -689.3122598            0.019331            T
         2       -689.3773552            0.074702            F
         3       -689.1588627            0.288107            F
         4       -689.3773612            0.074653            F
         5       -689.3122577            0.019356            T

     path length          =  8.052 bohr
     inter-image distance =  2.013 bohr

     ------------------------------ iteration  16 ------------------------------

     tcpu =    204.4    self-consistency for image   2
     tcpu =    206.9    self-consistency for image   3
     tcpu =    209.9    self-consistency for image   4

     activation energy (->) =   0.054460 eV
     activation energy (<-) =   0.054458 eV

     image        energy (eV)        error (eV/A)        frozen

         1       -689.3122598            0.019331            T
         2       -689.3774127            0.074899            F
         3       -689.2577998            0.294533            F
         4       -689.3774182            0.074733            F
         5       -689.3122577            0.019356            T

     path length          =  8.057 bohr
     inter-image distance =  2.014 bohr

     ------------------------------ iteration  17 ------------------------------

     tcpu =    212.3    self-consistency for image   2
     tcpu =    216.2    self-consistency for image   3
     tcpu =    222.3    self-consistency for image   4

     activation energy (->) =   0.041884 eV
     activation energy (<-) =   0.041882 eV

     image        energy (eV)        error (eV/A)        frozen

         1       -689.3122598            0.019331            T
         2       -689.3732349            0.360796            F
         3       -689.2703760            0.207940            F
         4       -689.3732550            0.357168            F
         5       -689.3122577            0.019356            T

     path length          =  8.124 bohr
     inter-image distance =  2.031 bohr

     ------------------------------ iteration  18 ------------------------------

     tcpu =    225.8    self-consistency for image   2
     tcpu =    228.8    self-consistency for image   3
     tcpu =    232.5    self-consistency for image   4

     activation energy (->) =   0.047334 eV
     activation energy (<-) =   0.047332 eV

     image        energy (eV)        error (eV/A)        frozen

         1       -689.3122598            0.019331            T
         2       -689.3764745            0.156230            F
         3       -689.2649254            0.250162            F
         4       -689.3764837            0.154782            F
         5       -689.3122577            0.019356            T

     path length          =  8.091 bohr
     inter-image distance =  2.023 bohr

     ------------------------------ iteration  19 ------------------------------

     tcpu =    235.5    self-consistency for image   2
     tcpu =    240.1    self-consistency for image   3
     tcpu =    247.7    self-consistency for image   4

     activation energy (->) =   0.110209 eV
     activation energy (<-) =   0.110207 eV

     image        energy (eV)        error (eV/A)        frozen

         1       -689.3122598            0.019331            T
         2       -689.3481012            1.196118            F
         3       -689.2020507            0.497121            F
         4       -689.3482372            1.183816            F
         5       -689.3122577            0.019356            T

     path length          =  7.908 bohr
     inter-image distance =  1.977 bohr

     ------------------------------ iteration  20 ------------------------------

     tcpu =    252.4    self-consistency for image   2
     tcpu =    257.0    self-consistency for image   3
     tcpu =    262.7    self-consistency for image   4

     activation energy (->) =   0.056069 eV
     activation energy (<-) =   0.056067 eV

     image        energy (eV)        error (eV/A)        frozen

         1       -689.3122598            0.019331            T
         2       -689.3773239            0.130395            F
         3       -689.2561911            0.299724            F
         4       -689.3773324            0.128966            F
         5       -689.3122577            0.019356            T

     path length          =  8.051 bohr
     inter-image distance =  2.013 bohr

     ------------------------------ iteration  21 ------------------------------

     tcpu =    267.2    self-consistency for image   2
     tcpu =    269.2    self-consistency for image   3
     tcpu =    270.8    self-consistency for image   4

     activation energy (->) =   0.000002 eV
     activation energy (<-) =   0.000000 eV

     image        energy (eV)        error (eV/A)        frozen

         1       -689.3122598            0.019331            T
         2       -689.3774423            0.116118            F
         3       -689.4031240            0.308071            F
         4       -689.3774488            0.114893            F
         5       -689.3122577            0.019356            T

     path length          =  8.054 bohr
     inter-image distance =  2.014 bohr

     ------------------------------ iteration  22 ------------------------------

     tcpu =    272.8    self-consistency for image   2
     tcpu =    275.1    self-consistency for image   3
     tcpu =    279.1    self-consistency for image   4

     activation energy (->) =   0.054055 eV
     activation energy (<-) =   0.054053 eV

     image        energy (eV)        error (eV/A)        frozen

         1       -689.3122598            0.019331            T
         2       -689.3775696            0.092682            F
         3       -689.2582046            0.290554            F
         4       -689.3775753            0.091772            F
         5       -689.3122577            0.019356            T

     path length          =  8.060 bohr
     inter-image distance =  2.015 bohr

     ------------------------------ iteration  23 ------------------------------

     tcpu =    281.6    self-consistency for image   2
     tcpu =    283.7    self-consistency for image   3
     tcpu =    286.8    self-consistency for image   4

     activation energy (->) =   0.052348 eV
     activation energy (<-) =   0.052346 eV

     image        energy (eV)        error (eV/A)        frozen

         1       -689.3122598            0.019331            T
         2       -689.3777227            0.074709            F
         3       -689.2599118            0.275545            F
         4       -689.3777260            0.074098            F
         5       -689.3122577            0.019356            T

     path length          =  8.067 bohr
     inter-image distance =  2.017 bohr

     ------------------------------ iteration  24 ------------------------------

     tcpu =    289.0    self-consistency for image   2
     tcpu =    291.6    self-consistency for image   3
     tcpu =    295.6    self-consistency for image   4

     activation energy (->) =   0.048182 eV
     activation energy (<-) =   0.048180 eV

     image        energy (eV)        error (eV/A)        frozen

         1       -689.3122598            0.019331            T
         2       -689.3778179            0.046327            F
         3       -689.2640775            0.251655            F
         4       -689.3778229            0.046049            F
         5       -689.3122577            0.019356            T

     path length          =  8.087 bohr
     inter-image distance =  2.022 bohr

     ------------------------------ iteration  25 ------------------------------

     tcpu =    298.1    self-consistency for image   2
     tcpu =    301.3    self-consistency for image   3
     tcpu =    306.8    self-consistency for image   4

     activation energy (->) =   0.039493 eV
     activation energy (<-) =   0.039491 eV

     image        energy (eV)        error (eV/A)        frozen

         1       -689.3122598            0.019331            T
         2       -689.3763055            0.147603            F
         3       -689.2727667            0.190032            F
         4       -689.3763354            0.144978            F
         5       -689.3122577            0.019356            T

     path length          =  8.143 bohr
     inter-image distance =  2.036 bohr

     ------------------------------ iteration  26 ------------------------------

     tcpu =    309.5    self-consistency for image   2
     tcpu =    311.4    self-consistency for image   3
     tcpu =    313.4    self-consistency for image   4

     activation energy (->) =   0.039577 eV
     activation energy (<-) =   0.039575 eV

     image        energy (eV)        error (eV/A)        frozen

         1       -689.3122598            0.019331            T
         2       -689.3766637            0.127776            F
         3       -689.2726829            0.188458            F
         4       -689.3766916            0.125307            F
         5       -689.3122577            0.019356            T

     path length          =  8.142 bohr
     inter-image distance =  2.036 bohr

     ------------------------------ iteration  27 ------------------------------

     tcpu =    315.4    self-consistency for image   2
     tcpu =    317.1    self-consistency for image   3
     tcpu =    320.7    self-consistency for image   4

     activation energy (->) =   0.038599 eV
     activation energy (<-) =   0.038597 eV

     image        energy (eV)        error (eV/A)        frozen

         1       -689.3122598            0.019331            T
         2       -689.3765459            0.135767            F
         3       -689.2736612            0.179224            F
         4       -689.3765655            0.133803            F
         5       -689.3122577            0.019356            T

     path length          =  8.150 bohr
     inter-image distance =  2.038 bohr

     ------------------------------ iteration  28 ------------------------------

     tcpu =    322.5    self-consistency for image   2
     tcpu =    325.0    self-consistency for image   3
     tcpu =    329.3    self-consistency for image   4

     activation energy (->) =   0.033698 eV
     activation energy (<-) =   0.033696 eV

     image        energy (eV)        error (eV/A)        frozen

         1       -689.3122598            0.019331            T
         2       -689.3772890            0.101174            F
         3       -689.2785616            0.129781            F
         4       -689.3772841            0.101324            F
         5       -689.3122577            0.019356            T

     path length          =  8.204 bohr
     inter-image distance =  2.051 bohr

     ------------------------------ iteration  29 ------------------------------

     tcpu =    332.1    self-consistency for image   2
     tcpu =    335.0    self-consistency for image   3
     tcpu =    340.1    self-consistency for image   4

     activation energy (->) =   0.027930 eV
     activation energy (<-) =   0.027928 eV

     image        energy (eV)        error (eV/A)        frozen

         1       -689.3122598            0.019331            T
         2       -689.3791851            0.020106            F
         3       -689.2843297            0.002948            F
         4       -689.3791424            0.024765            F
         5       -689.3122577            0.019356            T

     path length          =  8.368 bohr
     inter-image distance =  2.092 bohr

     ---------------------------------------------------------------------------


     neb: convergence achieved in  29 iterations

     NEB          :   5m31.16s CPU   5m42.83s WALL


   This run was terminated on:  13:31:50  19May2020            

=------------------------------------------------------------------------------=
   JOB DONE.
=------------------------------------------------------------------------------=
