 ANIMSTEPS   5
 CRYSTAL 
 PRIMVEC 
  5.7269022844  0.0000000000  0.0000000000
  0.0000000000  5.7269022844  0.0000000000
  0.0000000000  0.0000000000 12.0000047808
 PRIMCOORD   1
    5  1
Al    0.0000000000    0.0000000000    0.0000000000    0.0000000000    0.0000000000    0.0000000000
Al    2.8634511422    0.0000000000    0.0000000000    0.0000000000    0.0000000000    0.0000000000
Al    0.0000000000    2.8634511422    0.0000000000    0.0000000000    0.0000000000    0.0000000000
Al    2.8634511422    2.8634511422    0.0000000000    0.0000000000    0.0000000000    0.0000000000
 H    0.0000000000    0.0000000000    1.6460341155    0.0000000000    0.0000000000   -0.0011927596
 PRIMCOORD   2
    5  1
Al    0.0000000000    0.0000000000    0.0000000000    0.0000000000    0.0000000000    0.0000000000
Al    2.8634511422    0.0000000000    0.0000000000    0.0000000000    0.0000000000    0.0000000000
Al    0.0000000000    2.8634511422    0.0000000000    0.0000000000    0.0000000000    0.0000000000
Al    2.8634511422    2.8634511422    0.0000000000    0.0000000000    0.0000000000    0.0000000000
 H    0.7556868690    0.7556868690    1.3059856153    0.0000000000    0.0000000000   -0.0005943907
 PRIMCOORD   3
    5  1
Al    0.0000000000    0.0000000000    0.0000000000    0.0000000000    0.0000000000    0.0000000000
Al    2.8634511422    0.0000000000    0.0000000000    0.0000000000    0.0000000000    0.0000000000
Al    0.0000000000    2.8634511422    0.0000000000    0.0000000000    0.0000000000    0.0000000000
Al    2.8634511422    2.8634511422    0.0000000000    0.0000000000    0.0000000000    0.0000000000
 H    1.4316956884    1.4316956884    0.7462429184    0.0000000000    0.0000000000    0.0017774408
 PRIMCOORD   4
    5  1
Al    0.0000000000    0.0000000000    0.0000000000    0.0000000000    0.0000000000    0.0000000000
Al    2.8634511422    0.0000000000    0.0000000000    0.0000000000    0.0000000000    0.0000000000
Al    0.0000000000    2.8634511422    0.0000000000    0.0000000000    0.0000000000    0.0000000000
Al    2.8634511422    2.8634511422    0.0000000000    0.0000000000    0.0000000000    0.0000000000
 H    2.1077572580    2.1077572580    1.3059472882    0.0000000000    0.0000000000   -0.0006196756
 PRIMCOORD   5
    5  1
Al    0.0000000000    0.0000000000    0.0000000000    0.0000000000    0.0000000000    0.0000000000
Al    2.8634511422    0.0000000000    0.0000000000    0.0000000000    0.0000000000    0.0000000000
Al    0.0000000000    2.8634511422    0.0000000000    0.0000000000    0.0000000000    0.0000000000
Al    2.8634511422    2.8634511422    0.0000000000    0.0000000000    0.0000000000    0.0000000000
 H    2.8634511422    2.8634511422    1.6460341155    0.0000000000    0.0000000000   -0.0012134866
