 ANIMSTEPS   5
 CRYSTAL 
 PRIMVEC 
  5.7269022844  0.0000000000  0.0000000000
  0.0000000000  5.7269022844  0.0000000000
  0.0000000000  0.0000000000 12.0000047808
 PRIMCOORD   1
    5  1
Al    0.0000000000    0.0000000000    0.0000000000   -0.0000000000   -0.0000000000   -0.0000000000
Al    2.8634511422    0.0000000000    0.0000000000   -0.0000000000   -0.0000000000   -0.0000000000
Al    0.0000000000    2.8634511422    0.0000000000   -0.0000000000   -0.0000000000   -0.0000000000
Al    2.8634511422    2.8634511422    0.0000000000   -0.0000000000   -0.0000000000   -0.0000000000
 H    0.0000000000    0.0000000000    1.6460341155   -0.0000000000   -0.0000000000   -0.0012093919
 PRIMCOORD   2
    5  1
Al    0.0000000000    0.0000000000    0.0000000000   -0.0000000000   -0.0000000000   -0.0000000000
Al    2.8634511422    0.0000000000    0.0000000000   -0.0000000000   -0.0000000000   -0.0000000000
Al    0.0000000000    2.8634511422    0.0000000000   -0.0000000000   -0.0000000000   -0.0000000000
Al    2.8634511422    2.8634511422    0.0000000000   -0.0000000000   -0.0000000000   -0.0000000000
 H    0.7418504469    0.7418504469    1.3085220693   -0.0000000000   -0.0000000000    0.0009255804
 PRIMCOORD   3
    5  1
Al    0.0000000000    0.0000000000    0.0000000000   -0.0000000000   -0.0000000000   -0.0000000000
Al    2.8634511422    0.0000000000    0.0000000000   -0.0000000000   -0.0000000000   -0.0000000000
Al    0.0000000000    2.8634511422    0.0000000000   -0.0000000000   -0.0000000000   -0.0000000000
Al    2.8634511422    2.8634511422    0.0000000000   -0.0000000000   -0.0000000000   -0.0000000000
 H    1.4315238340    1.4315238340    0.8073510276   -0.0000000000   -0.0000000000   -0.0015050172
 PRIMCOORD   4
    5  1
Al    0.0000000000    0.0000000000    0.0000000000   -0.0000000000   -0.0000000000   -0.0000000000
Al    2.8634511422    0.0000000000    0.0000000000   -0.0000000000   -0.0000000000   -0.0000000000
Al    0.0000000000    2.8634511422    0.0000000000   -0.0000000000   -0.0000000000   -0.0000000000
Al    2.8634511422    2.8634511422    0.0000000000   -0.0000000000   -0.0000000000   -0.0000000000
 H    2.1221609450    2.1221609450    1.3087160813   -0.0000000000   -0.0000000000    0.0010215171
 PRIMCOORD   5
    5  1
Al    0.0000000000    0.0000000000    0.0000000000   -0.0000000000   -0.0000000000   -0.0000000000
Al    2.8634511422    0.0000000000    0.0000000000   -0.0000000000   -0.0000000000   -0.0000000000
Al    0.0000000000    2.8634511422    0.0000000000   -0.0000000000   -0.0000000000   -0.0000000000
Al    2.8634511422    2.8634511422    0.0000000000   -0.0000000000   -0.0000000000   -0.0000000000
 H    2.8634511422    2.8634511422    1.6460341155   -0.0000000000   -0.0000000000   -0.0011430686
