 ANIMSTEPS   5
 CRYSTAL 
 PRIMVEC 
  5.7269022844  0.0000000000  0.0000000000
  0.0000000000  5.7269022844  0.0000000000
  0.0000000000  0.0000000000 12.0000047808
 PRIMCOORD   1
    5  1
Al    0.0000000000    0.0000000000    0.0000000000   -0.0000000000   -0.0000000000   -0.0000000000
Al    2.8634511422    0.0000000000    0.0000000000    0.0000000000   -0.0000000000   -0.0000000000
Al    0.0000000000    2.8634511422    0.0000000000   -0.0000000000    0.0000000000   -0.0000000000
Al    2.8634511422    2.8634511422    0.0000000000    0.0000000000    0.0000000000    0.0000000000
 H    0.0000000000    0.0000000000    1.6460341155   -0.0000000000   -0.0000000000   -0.0004062777
 PRIMCOORD   2
    5  1
Al    0.0000000000    0.0000000000    0.0000000000    0.0000000000    0.0000000000   -0.0000000000
Al    2.8634511422    0.0000000000    0.0000000000   -0.0000000000    0.0000000000    0.0000000000
Al    0.0000000000    2.8634511422    0.0000000000    0.0000000000   -0.0000000000    0.0000000000
Al    2.8634511422    2.8634511422    0.0000000000   -0.0000000000   -0.0000000000    0.0000000000
 H    0.7379635363    0.7379635363    1.3189714804    0.0000000000    0.0000000000    0.0004313709
 PRIMCOORD   3
    5  1
Al    0.0000000000    0.0000000000    0.0000000000    0.0000000000    0.0000000000    0.0000000000
Al    2.8634511422    0.0000000000    0.0000000000   -0.0000000000    0.0000000000    0.0000000000
Al    0.0000000000    2.8634511422    0.0000000000    0.0000000000   -0.0000000000    0.0000000000
Al    2.8634511422    2.8634511422    0.0000000000   -0.0000000000   -0.0000000000    0.0000000000
 H    1.4317256009    1.4317256009    0.8090277324    0.0000000000    0.0000000000   -0.0014408156
 PRIMCOORD   4
    5  1
Al    0.0000000000    0.0000000000    0.0000000000    0.0000000000    0.0000000000    0.0000000000
Al    2.8634511422    0.0000000000    0.0000000000   -0.0000000000    0.0000000000    0.0000000000
Al    0.0000000000    2.8634511422    0.0000000000    0.0000000000   -0.0000000000    0.0000000000
Al    2.8634511422    2.8634511422    0.0000000000   -0.0000000000   -0.0000000000   -0.0000000000
 H    2.1254872662    2.1254872662    1.3189712709   -0.0000000000   -0.0000000000    0.0004313517
 PRIMCOORD   5
    5  1
Al    0.0000000000    0.0000000000    0.0000000000    0.0000000000    0.0000000000    0.0000000000
Al    2.8634511422    0.0000000000    0.0000000000   -0.0000000000   -0.0000000000   -0.0000000000
Al    0.0000000000    2.8634511422    0.0000000000    0.0000000000   -0.0000000000   -0.0000000000
Al    2.8634511422    2.8634511422    0.0000000000   -0.0000000000    0.0000000000   -0.0000000000
 H    2.8634511422    2.8634511422    1.6460341155   -0.0000000000    0.0000000000   -0.0004059327
