 ANIMSTEPS   5
 CRYSTAL 
 PRIMVEC 
  5.7269022844  0.0000000000  0.0000000000
  0.0000000000  5.7269022844  0.0000000000
  0.0000000000  0.0000000000 12.0000047808
 PRIMCOORD   1
    5  1
Al    0.0000000000    0.0000000000    0.0000000000    0.0000000000    0.0000000000    0.0000000000
Al    2.8634511422    0.0000000000    0.0000000000    0.0000000000    0.0000000000    0.0000000000
Al    0.0000000000    2.8634511422    0.0000000000    0.0000000000    0.0000000000    0.0000000000
Al    2.8634511422    2.8634511422    0.0000000000    0.0000000000    0.0000000000    0.0000000000
 H    0.0000000000    0.0000000000    1.6460341155    0.0000000000    0.0000000000   -0.0011868138
 PRIMCOORD   2
    5  1
Al    0.0000000000    0.0000000000    0.0000000000    0.0000000000    0.0000000000    0.0000000000
Al    2.8634511422    0.0000000000    0.0000000000    0.0000000000    0.0000000000    0.0000000000
Al    0.0000000000    2.8634511422    0.0000000000    0.0000000000    0.0000000000    0.0000000000
Al    2.8634511422    2.8634511422    0.0000000000    0.0000000000    0.0000000000    0.0000000000
 H    0.7501381960    0.7501381960    1.3049355561    0.0000000000    0.0000000000    0.0003419048
 PRIMCOORD   3
    5  1
Al    0.0000000000    0.0000000000    0.0000000000    0.0000000000    0.0000000000    0.0000000000
Al    2.8634511422    0.0000000000    0.0000000000    0.0000000000    0.0000000000    0.0000000000
Al    0.0000000000    2.8634511422    0.0000000000    0.0000000000    0.0000000000    0.0000000000
Al    2.8634511422    2.8634511422    0.0000000000    0.0000000000    0.0000000000    0.0000000000
 H    1.4317619513    1.4317619513    0.7602606883    0.0000000000    0.0000000000    0.0010810392
 PRIMCOORD   4
    5  1
Al    0.0000000000    0.0000000000    0.0000000000    0.0000000000    0.0000000000    0.0000000000
Al    2.8634511422    0.0000000000    0.0000000000    0.0000000000    0.0000000000    0.0000000000
Al    0.0000000000    2.8634511422    0.0000000000    0.0000000000    0.0000000000    0.0000000000
Al    2.8634511422    2.8634511422    0.0000000000    0.0000000000    0.0000000000    0.0000000000
 H    2.1132073671    2.1132073671    1.3048469548    0.0000000000    0.0000000000    0.0002326868
 PRIMCOORD   5
    5  1
Al    0.0000000000    0.0000000000    0.0000000000    0.0000000000    0.0000000000    0.0000000000
Al    2.8634511422    0.0000000000    0.0000000000    0.0000000000    0.0000000000    0.0000000000
Al    0.0000000000    2.8634511422    0.0000000000    0.0000000000    0.0000000000    0.0000000000
Al    2.8634511422    2.8634511422    0.0000000000    0.0000000000    0.0000000000    0.0000000000
 H    2.8634511422    2.8634511422    1.6460341155    0.0000000000    0.0000000000   -0.0012014332
