 ANIMSTEPS   5
 CRYSTAL 
 PRIMVEC 
  5.7269022594  0.0000000000  0.0000000000
  0.0000000000  5.7269022594  0.0000000000
  0.0000000000  0.0000000000 12.0000047284
 PRIMCOORD   1
    5  1
Al    0.0000000000    0.0000000000    0.0000000000    0.0000000000    0.0000000000   -0.0000000000
Al    2.8634511297    0.0000000000    0.0000000000   -0.0000000000   -0.0000000000   -0.0000000000
Al    0.0000000000    2.8634511297    0.0000000000    0.0000000000   -0.0000000000   -0.0000000000
Al    2.8634511297    2.8634511297    0.0000000000   -0.0000000000   -0.0000000000    0.0000000000
 H    0.0000000000    0.0000000000    1.6460341083    0.0000000000    0.0000000000   -0.0006818057
 PRIMCOORD   2
    5  1
Al    0.0000000000    0.0000000000    0.0000000000    0.0000000000    0.0000000000   -0.0000000000
Al    2.8634511297    0.0000000000    0.0000000000   -0.0000000000    0.0000000000    0.0000000000
Al    0.0000000000    2.8634511297    0.0000000000    0.0000000000   -0.0000000000    0.0000000000
Al    2.8634511297    2.8634511297    0.0000000000   -0.0000000000   -0.0000000000    0.0000000000
 H    0.7411443529    0.7411443529    1.3152649152    0.0000000000    0.0000000000    0.0007994089
 PRIMCOORD   3
    5  1
Al    0.0000000000    0.0000000000    0.0000000000    0.0000000000    0.0000000000   -0.0000000000
Al    2.8634511297    0.0000000000    0.0000000000   -0.0000000000    0.0000000000   -0.0000000000
Al    0.0000000000    2.8634511297    0.0000000000    0.0000000000   -0.0000000000   -0.0000000000
Al    2.8634511297    2.8634511297    0.0000000000   -0.0000000000   -0.0000000000   -0.0000000000
 H    1.4317357997    1.4317357997    0.7843485997    0.0000000000    0.0000000000    0.0000894914
 PRIMCOORD   4
    5  1
Al    0.0000000000    0.0000000000    0.0000000000    0.0000000000    0.0000000000    0.0000000000
Al    2.8634511297    0.0000000000    0.0000000000   -0.0000000000    0.0000000000    0.0000000000
Al    0.0000000000    2.8634511297    0.0000000000    0.0000000000   -0.0000000000    0.0000000000
Al    2.8634511297    2.8634511297    0.0000000000   -0.0000000000   -0.0000000000   -0.0000000000
 H    2.1222674878    2.1222674878    1.3153165795   -0.0000000000   -0.0000000000    0.0007722955
 PRIMCOORD   5
    5  1
Al    0.0000000000    0.0000000000    0.0000000000    0.0000000000   -0.0000000000    0.0000000000
Al    2.8634511297    0.0000000000    0.0000000000    0.0000000000    0.0000000000   -0.0000000000
Al    0.0000000000    2.8634511297    0.0000000000    0.0000000000    0.0000000000   -0.0000000000
Al    2.8634511297    2.8634511297    0.0000000000   -0.0000000000   -0.0000000000   -0.0000000000
 H    2.8634511297    2.8634511297    1.6460341083   -0.0000000000   -0.0000000000   -0.0006846729
