 ANIMSTEPS   5
 CRYSTAL 
 PRIMVEC 
  5.7269022594  0.0000000000  0.0000000000
  0.0000000000  5.7269022594  0.0000000000
  0.0000000000  0.0000000000 12.0000047284
 PRIMCOORD   1
    5  1
Al    0.0000000000    0.0000000000    0.0000000000    0.0000000000    0.0000000000   -0.0000000000
Al    2.8634511297    0.0000000000    0.0000000000   -0.0000000000    0.0000000000   -0.0000000000
Al    0.0000000000    2.8634511297    0.0000000000   -0.0000000000   -0.0000000000   -0.0000000000
Al    2.8634511297    2.8634511297    0.0000000000    0.0000000000    0.0000000000    0.0000000000
 H    0.0000000000    0.0000000000    1.6460341083   -0.0000000000   -0.0000000000   -0.0007270471
 PRIMCOORD   2
    5  1
Al    0.0000000000    0.0000000000    0.0000000000    0.0000000000    0.0000000000   -0.0000000000
Al    2.8634511297    0.0000000000    0.0000000000   -0.0000000000    0.0000000000    0.0000000000
Al    0.0000000000    2.8634511297    0.0000000000    0.0000000000   -0.0000000000    0.0000000000
Al    2.8634511297    2.8634511297    0.0000000000   -0.0000000000   -0.0000000000    0.0000000000
 H    0.7423394543    0.7423394543    1.3108758296    0.0000000000    0.0000000000    0.0011655470
 PRIMCOORD   3
    5  1
Al    0.0000000000    0.0000000000    0.0000000000    0.0000000000    0.0000000000   -0.0000000000
Al    2.8634511297    0.0000000000    0.0000000000   -0.0000000000    0.0000000000   -0.0000000000
Al    0.0000000000    2.8634511297    0.0000000000    0.0000000000   -0.0000000000   -0.0000000000
Al    2.8634511297    2.8634511297    0.0000000000   -0.0000000000   -0.0000000000   -0.0000000000
 H    1.4317741236    1.4317741236    0.7728836446    0.0000000000    0.0000000000    0.0005353013
 PRIMCOORD   4
    5  1
Al    0.0000000000    0.0000000000    0.0000000000    0.0000000000    0.0000000000    0.0000000000
Al    2.8634511297    0.0000000000    0.0000000000   -0.0000000000    0.0000000000    0.0000000000
Al    0.0000000000    2.8634511297    0.0000000000    0.0000000000   -0.0000000000    0.0000000000
Al    2.8634511297    2.8634511297    0.0000000000   -0.0000000000   -0.0000000000   -0.0000000000
 H    2.1210280896    2.1210280896    1.3108014290   -0.0000000000   -0.0000000000    0.0011606418
 PRIMCOORD   5
    5  1
Al    0.0000000000    0.0000000000    0.0000000000    0.0000000000    0.0000000000    0.0000000000
Al    2.8634511297    0.0000000000    0.0000000000   -0.0000000000   -0.0000000000   -0.0000000000
Al    0.0000000000    2.8634511297    0.0000000000    0.0000000000    0.0000000000   -0.0000000000
Al    2.8634511297    2.8634511297    0.0000000000   -0.0000000000   -0.0000000000   -0.0000000000
 H    2.8634511297    2.8634511297    1.6460341083    0.0000000000   -0.0000000000   -0.0007039130
