 ANIMSTEPS   5
 CRYSTAL 
 PRIMVEC 
  5.7269022844  0.0000000000  0.0000000000
  0.0000000000  5.7269022844  0.0000000000
  0.0000000000  0.0000000000 12.0000047808
 PRIMCOORD   1
    5  1
Al    0.0000000000    0.0000000000    0.0000000000   -0.0000000000   -0.0000000000   -0.0000000000
Al    2.8634511422    0.0000000000    0.0000000000   -0.0000000000   -0.0000000000   -0.0000000000
Al    0.0000000000    2.8634511422    0.0000000000   -0.0000000000   -0.0000000000   -0.0000000000
Al    2.8634511422    2.8634511422    0.0000000000   -0.0000000000   -0.0000000000   -0.0000000000
 H    0.0000000000    0.0000000000    1.6460341155   -0.0000000000   -0.0000000000   -0.0008493708
 PRIMCOORD   2
    5  1
Al    0.0000000000    0.0000000000    0.0000000000   -0.0000000000   -0.0000000000   -0.0000000000
Al    2.8634511422    0.0000000000    0.0000000000   -0.0000000000   -0.0000000000   -0.0000000000
Al    0.0000000000    2.8634511422    0.0000000000   -0.0000000000   -0.0000000000   -0.0000000000
Al    2.8634511422    2.8634511422    0.0000000000   -0.0000000000   -0.0000000000   -0.0000000000
 H    0.7454223762    0.7454223762    1.3136687632   -0.0000000000   -0.0000000000   -0.0002027619
 PRIMCOORD   3
    5  1
Al    0.0000000000    0.0000000000    0.0000000000   -0.0000000000   -0.0000000000   -0.0000000000
Al    2.8634511422    0.0000000000    0.0000000000   -0.0000000000   -0.0000000000   -0.0000000000
Al    0.0000000000    2.8634511422    0.0000000000   -0.0000000000   -0.0000000000   -0.0000000000
Al    2.8634511422    2.8634511422    0.0000000000   -0.0000000000   -0.0000000000   -0.0000000000
 H    1.4317148521    1.4317148521    0.7780044910   -0.0000000000   -0.0000000000    0.0002556411
 PRIMCOORD   4
    5  1
Al    0.0000000000    0.0000000000    0.0000000000   -0.0000000000   -0.0000000000   -0.0000000000
Al    2.8634511422    0.0000000000    0.0000000000   -0.0000000000   -0.0000000000   -0.0000000000
Al    0.0000000000    2.8634511422    0.0000000000   -0.0000000000   -0.0000000000   -0.0000000000
Al    2.8634511422    2.8634511422    0.0000000000   -0.0000000000   -0.0000000000   -0.0000000000
 H    2.1180375092    2.1180375092    1.3136713607   -0.0000000000   -0.0000000000   -0.0001402134
 PRIMCOORD   5
    5  1
Al    0.0000000000    0.0000000000    0.0000000000   -0.0000000000   -0.0000000000   -0.0000000000
Al    2.8634511422    0.0000000000    0.0000000000   -0.0000000000   -0.0000000000   -0.0000000000
Al    0.0000000000    2.8634511422    0.0000000000   -0.0000000000   -0.0000000000   -0.0000000000
Al    2.8634511422    2.8634511422    0.0000000000   -0.0000000000   -0.0000000000   -0.0000000000
 H    2.8634511422    2.8634511422    1.6460341155   -0.0000000000   -0.0000000000   -0.0006787258
