
     Program PHONON v.6.beta (svn rev. 13007) starts on 23Sep2016 at 10:38:17 

     This program is part of the open-source Quantum ESPRESSO suite
     for quantum simulation of materials; please cite
         "P. Giannozzi et al., J. Phys.:Condens. Matter 21 395502 (2009);
          URL http://www.quantum-espresso.org", 
     in publications or presentations arising from this work. More details at
     http://www.quantum-espresso.org/quote

           HOST :    @host@
           ARCH :    x86_64
             CC :    cc
            CPP :    cpp
            F90 :    mpif90
            F77 :    gfortran
         DFLAGS :    -D__GFORTRAN -D__STD_F95 -D__FFTW -D__MPI
      BLAS LIBS :    
    LAPACK LIBS :    $(TOPDIR)/LAPACK/liblapack.a $(TOPDIR)/LAPACK/libblas.a
       FFT LIBS :    
      MASS LIBS :    

     Parallel version (MPI), running on     2 processors
     R & G space division:  proc/nbgrp/npool/nimage =       2

     Reading data from directory:
     /home/pietro/trunk/espresso/tempdir/alas.save

   Info: using nr1, nr2, nr3 values from input

   Info: using nr1, nr2, nr3 values from input

     IMPORTANT: XC functional enforced from input :
     Exchange-correlation      =  SLA  PZ   NOGX NOGC ( 1  1  0  0 0 0)
     Any further DFT definition will be discarded
     Please, verify this is what you really want


     Parallelization info
     --------------------
     sticks:   dense  smooth     PW     G-vecs:    dense   smooth      PW
     Min         120     120     42                 1221     1221     229
     Max         121     121     43                 1224     1224     230
     Sum         241     241     85                 2445     2445     459



     Dynamical matrices for ( 4, 4, 4)  uniform grid of q-points
     (   8q-points):
       N         xq(1)         xq(2)         xq(3) 
       1   0.000000000   0.000000000   0.000000000
       2  -0.250000000   0.250000000  -0.250000000
       3   0.500000000  -0.500000000   0.500000000
       4   0.000000000   0.500000000   0.000000000
       5   0.750000000  -0.250000000   0.750000000
       6   0.500000000   0.000000000   0.500000000
       7   0.000000000  -1.000000000   0.000000000
       8  -0.500000000  -1.000000000   0.000000000

     Calculation of q =    0.0000000   0.0000000   0.0000000

                                                                                

     bravais-lattice index     =            2
     lattice parameter (alat)  =      10.5000  a.u.
     unit-cell volume          =     289.4062 (a.u.)^3
     number of atoms/cell      =            2
     number of atomic types    =            2
     kinetic-energy cut-off    =      16.0000  Ry
     charge density cut-off    =      64.0000  Ry
     convergence threshold     =      1.0E-12
     beta                      =       0.7000
     number of iterations used =            4
     Exchange-correlation      =  SLA  PZ   NOGX NOGC ( 1  1  0  0 0 0)


     celldm(1)=   10.50000  celldm(2)=    0.00000  celldm(3)=    0.00000
     celldm(4)=    0.00000  celldm(5)=    0.00000  celldm(6)=    0.00000

     crystal axes: (cart. coord. in units of alat)
               a(1) = ( -0.5000  0.0000  0.5000 )  
               a(2) = (  0.0000  0.5000  0.5000 )  
               a(3) = ( -0.5000  0.5000  0.0000 )  

     reciprocal axes: (cart. coord. in units 2 pi/alat)
               b(1) = ( -1.0000 -1.0000  1.0000 )  
               b(2) = (  1.0000  1.0000  1.0000 )  
               b(3) = ( -1.0000  1.0000 -1.0000 )  


     Atoms inside the unit cell: 

     Cartesian axes

     site n.  atom      mass           positions (alat units)
        1     Al  26.9800   tau(    1) = (    0.00000    0.00000    0.00000  )
        2     As  74.9200   tau(    2) = (    0.25000    0.25000    0.25000  )

     Computing dynamical matrix for 
                    q = (   0.0000000   0.0000000   0.0000000 )

     25 Sym.Ops. (with q -> -q+G )


     G cutoff =  178.7306  (   1224 G-vectors)     FFT grid: ( 20, 20, 20)
     number of k points=     2

     PseudoPot. # 1 for Al read from file:
     /home/pietro/trunk/espresso/pseudo/Al.pz-vbc.UPF
     MD5 check sum: 614279c88ff8d45c90147292d03ed420
     Pseudo is Norm-conserving, Zval =  3.0
     Generated by new atomic code, or converted to UPF format
     Using radial grid of  171 points,  2 beta functions with: 
                l(1) =   0
                l(2) =   1

     PseudoPot. # 2 for As read from file:
     /home/pietro/trunk/espresso/pseudo/As.pz-bhs.UPF
     MD5 check sum: 451cd3365afcfc94d28b1934951c34a8
     Pseudo is Norm-conserving, Zval =  5.0
     Generated by new atomic code, or converted to UPF format
     Using radial grid of  525 points,  2 beta functions with: 
                l(1) =   0
                l(2) =   1

     Mode symmetry, T_d (-43m)  point group:


     Electric field:
     Dielectric constant
     Born effective charges in two ways 


     Atomic displacements:
     There are   2 irreducible representations

     Representation     1      3 modes -T_2  G_15 P_4  To be done

     Representation     2      3 modes -T_2  G_15 P_4  To be done



     Alpha used in Ewald sum =   0.7000
     PHONON       :     0.17s CPU         0.18s WALL


     Electric Fields Calculation

      iter #   1 total cpu time :     0.3 secs   av.it.:   6.0
      thresh= 1.000E-02 alpha_mix =  0.700 |ddv_scf|^2 =  1.326E-06

      iter #   2 total cpu time :     0.3 secs   av.it.:   9.3
      thresh= 1.151E-04 alpha_mix =  0.700 |ddv_scf|^2 =  6.508E-08

      iter #   3 total cpu time :     0.4 secs   av.it.:   9.5
      thresh= 2.551E-05 alpha_mix =  0.700 |ddv_scf|^2 =  6.401E-10

      iter #   4 total cpu time :     0.4 secs   av.it.:   9.8
      thresh= 2.530E-06 alpha_mix =  0.700 |ddv_scf|^2 =  3.108E-12

      iter #   5 total cpu time :     0.5 secs   av.it.:   9.0
      thresh= 1.763E-07 alpha_mix =  0.700 |ddv_scf|^2 =  1.543E-14

     End of electric fields calculation

          Dielectric constant in cartesian axis 

          (      13.744216098      -0.000000000       0.000000000 )
          (      -0.000000000      13.744216098       0.000000000 )
          (      -0.000000000      -0.000000000      13.744216098 )

          Effective charges (d Force / dE) in cartesian axis

           atom      1   Al 
      Ex  (        1.88265        0.00000        0.00000 )
      Ey  (        0.00000        1.88265        0.00000 )
      Ez  (        0.00000        0.00000        1.88265 )
           atom      2   As 
      Ex  (       -3.23374       -0.00000        0.00000 )
      Ey  (       -0.00000       -3.23374        0.00000 )
      Ez  (        0.00000       -0.00000       -3.23374 )


     Representation #  1 modes #   1  2  3

     Self-consistent Calculation

      iter #   1 total cpu time :     0.5 secs   av.it.:   5.7
      thresh= 1.000E-02 alpha_mix =  0.700 |ddv_scf|^2 =  4.662E-07

      iter #   2 total cpu time :     0.6 secs   av.it.:   9.7
      thresh= 6.828E-05 alpha_mix =  0.700 |ddv_scf|^2 =  2.273E-08

      iter #   3 total cpu time :     0.7 secs   av.it.:   9.7
      thresh= 1.508E-05 alpha_mix =  0.700 |ddv_scf|^2 =  3.797E-11

      iter #   4 total cpu time :     0.7 secs   av.it.:   9.5
      thresh= 6.162E-07 alpha_mix =  0.700 |ddv_scf|^2 =  7.182E-13

     End of self-consistent calculation

     Convergence has been achieved 


     Representation #  2 modes #   4  5  6

     Self-consistent Calculation

      iter #   1 total cpu time :     0.8 secs   av.it.:   5.0
      thresh= 1.000E-02 alpha_mix =  0.700 |ddv_scf|^2 =  2.910E-08

      iter #   2 total cpu time :     0.8 secs   av.it.:   9.8
      thresh= 1.706E-05 alpha_mix =  0.700 |ddv_scf|^2 =  3.259E-10

      iter #   3 total cpu time :     0.9 secs   av.it.:   9.5
      thresh= 1.805E-06 alpha_mix =  0.700 |ddv_scf|^2 =  3.012E-11

      iter #   4 total cpu time :     0.9 secs   av.it.:   9.5
      thresh= 5.488E-07 alpha_mix =  0.700 |ddv_scf|^2 =  1.306E-12

      iter #   5 total cpu time :     1.0 secs   av.it.:   9.5
      thresh= 1.143E-07 alpha_mix =  0.700 |ddv_scf|^2 =  4.628E-16

     End of self-consistent calculation

     Convergence has been achieved 

     Number of q in the star =    1
     List of q in the star:
          1   0.000000000   0.000000000   0.000000000

          Dielectric constant in cartesian axis 

          (      13.744216098      -0.000000000       0.000000000 )
          (      -0.000000000      13.744216098       0.000000000 )
          (      -0.000000000      -0.000000000      13.744216098 )

          Effective charges (d Force / dE) in cartesian axis

           atom      1   Al 
      Ex  (        1.88265        0.00000        0.00000 )
      Ey  (        0.00000        1.88265        0.00000 )
      Ez  (        0.00000        0.00000        1.88265 )
           atom      2   As 
      Ex  (       -3.23374       -0.00000        0.00000 )
      Ey  (       -0.00000       -3.23374        0.00000 )
      Ez  (        0.00000       -0.00000       -3.23374 )

          Effective charges (d P / du) in cartesian axis 

           atom      1   Al 
      Px  (        1.88284        0.00000        0.00000 )
      Py  (        0.00000        1.88284        0.00000 )
      Pz  (       -0.00000        0.00000        1.88284 )
           atom      2   As 
      Px  (       -3.23837       -0.00000       -0.00000 )
      Py  (       -0.00000       -3.23837        0.00000 )
      Pz  (        0.00000        0.00000       -3.23837 )

     Diagonalizing the dynamical matrix

     q = (    0.000000000   0.000000000   0.000000000 ) 

 **************************************************************************
     freq (    1) =       0.164575 [THz] =       5.489639 [cm-1]
     freq (    2) =       0.164575 [THz] =       5.489639 [cm-1]
     freq (    3) =       0.164575 [THz] =       5.489639 [cm-1]
     freq (    4) =      11.258806 [THz] =     375.553348 [cm-1]
     freq (    5) =      11.258806 [THz] =     375.553348 [cm-1]
     freq (    6) =      11.258806 [THz] =     375.553348 [cm-1]
 **************************************************************************

     Mode symmetry, T_d (-43m)  point group:

     freq (  1 -  3) =          5.5  [cm-1]   --> T_2  G_15 P_4   I+R
     freq (  4 -  6) =        375.6  [cm-1]   --> T_2  G_15 P_4   I+R

     Calculation of q =   -0.2500000   0.2500000  -0.2500000

     Parallelization info
     --------------------
     sticks:   dense  smooth     PW     G-vecs:    dense   smooth      PW
     Min         120     120     42                 1221     1221     264
     Max         121     121     43                 1224     1224     267
     Sum         241     241     85                 2445     2445     531



     bravais-lattice index     =            2
     lattice parameter (alat)  =      10.5000  a.u.
     unit-cell volume          =     289.4062 (a.u.)^3
     number of atoms/cell      =            2
     number of atomic types    =            2
     number of electrons       =         8.00
     number of Kohn-Sham states=            4
     kinetic-energy cutoff     =      16.0000  Ry
     charge density cutoff     =      64.0000  Ry
     Exchange-correlation      =  SLA  PZ   NOGX NOGC ( 1  1  0  0 0 0)

     celldm(1)=  10.500000  celldm(2)=   0.000000  celldm(3)=   0.000000
     celldm(4)=   0.000000  celldm(5)=   0.000000  celldm(6)=   0.000000

     crystal axes: (cart. coord. in units of alat)
               a(1) = (  -0.500000   0.000000   0.500000 )  
               a(2) = (   0.000000   0.500000   0.500000 )  
               a(3) = (  -0.500000   0.500000   0.000000 )  

     reciprocal axes: (cart. coord. in units 2 pi/alat)
               b(1) = ( -1.000000 -1.000000  1.000000 )  
               b(2) = (  1.000000  1.000000  1.000000 )  
               b(3) = ( -1.000000  1.000000 -1.000000 )  


     PseudoPot. # 1 for Al read from file:
     /home/pietro/trunk/espresso/pseudo/Al.pz-vbc.UPF
     MD5 check sum: 614279c88ff8d45c90147292d03ed420
     Pseudo is Norm-conserving, Zval =  3.0
     Generated by new atomic code, or converted to UPF format
     Using radial grid of  171 points,  2 beta functions with: 
                l(1) =   0
                l(2) =   1

     PseudoPot. # 2 for As read from file:
     /home/pietro/trunk/espresso/pseudo/As.pz-bhs.UPF
     MD5 check sum: 451cd3365afcfc94d28b1934951c34a8
     Pseudo is Norm-conserving, Zval =  5.0
     Generated by new atomic code, or converted to UPF format
     Using radial grid of  525 points,  2 beta functions with: 
                l(1) =   0
                l(2) =   1

     atomic species   valence    mass     pseudopotential
        Al             3.00    26.98000     Al( 1.00)
        As             5.00    74.92000     As( 1.00)

     24 Sym. Ops. (no inversion) found



   Cartesian axes

     site n.     atom                  positions (alat units)
         1           Al  tau(   1) = (   0.0000000   0.0000000   0.0000000  )
         2           As  tau(   2) = (   0.2500000   0.2500000   0.2500000  )

     number of k points=    20
                       cart. coord. in units 2pi/alat
        k(    1) = (   0.2500000   0.2500000   0.2500000), wk =   0.1875000
        k(    2) = (   0.0000000   0.5000000   0.0000000), wk =   0.0000000
        k(    3) = (   0.2500000   0.2500000   0.7500000), wk =   0.3750000
        k(    4) = (   0.0000000   0.5000000   0.5000000), wk =   0.0000000
        k(    5) = (  -0.2500000   0.2500000  -0.2500000), wk =   0.0625000
        k(    6) = (  -0.5000000   0.5000000  -0.5000000), wk =   0.0000000
        k(    7) = (  -0.2500000  -0.2500000  -0.2500000), wk =   0.1875000
        k(    8) = (  -0.5000000   0.0000000  -0.5000000), wk =   0.0000000
        k(    9) = (   0.2500000  -0.2500000   0.2500000), wk =   0.0625000
        k(   10) = (   0.0000000   0.0000000   0.0000000), wk =   0.0000000
        k(   11) = (  -0.7500000  -0.2500000   0.2500000), wk =   0.1875000
        k(   12) = (  -1.0000000   0.0000000   0.0000000), wk =   0.0000000
        k(   13) = (  -0.7500000   0.2500000  -0.2500000), wk =   0.1875000
        k(   14) = (  -1.0000000   0.5000000  -0.5000000), wk =   0.0000000
        k(   15) = (  -0.2500000  -0.2500000  -0.7500000), wk =   0.3750000
        k(   16) = (  -0.5000000   0.0000000  -1.0000000), wk =   0.0000000
        k(   17) = (   0.2500000  -0.2500000   0.7500000), wk =   0.1875000
        k(   18) = (   0.0000000   0.0000000   0.5000000), wk =   0.0000000
        k(   19) = (  -0.2500000   0.2500000   0.7500000), wk =   0.1875000
        k(   20) = (  -0.5000000   0.5000000   0.5000000), wk =   0.0000000

     Dense  grid:     2445 G-vectors     FFT dimensions: (  20,  20,  20)

     Estimated max dynamical RAM per process >       0.51Mb

     Estimated total allocated dynamical RAM >       1.02Mb

     The potential is recalculated from file :
     /home/pietro/trunk/espresso/tempdir/_ph0/alas.save/charge-density.dat

     Starting wfc are    8 atomic wfcs

     Band Structure Calculation
     Davidson diagonalization with overlap

     ethr =  1.25E-10,  avg # of iterations = 11.0

     total cpu time spent up to now is        0.2 secs

     End of band structure calculation

          k = 0.2500 0.2500 0.2500 (   311 PWs)   bands (ev):

    -6.3575   1.7035   4.6970   4.6970

          k = 0.0000 0.5000 0.0000 (   311 PWs)   bands (ev):

    -6.1430   1.9396   3.7847   3.7847

          k = 0.2500 0.2500 0.7500 (   311 PWs)   bands (ev):

    -5.1819  -0.0415   2.3125   3.5086

          k = 0.0000 0.5000 0.5000 (   315 PWs)   bands (ev):

    -5.5287   0.5005   2.1485   4.2663

          k =-0.2500 0.2500-0.2500 (   311 PWs)   bands (ev):

    -6.3575   1.7035   4.6970   4.6970

          k =-0.5000 0.5000-0.5000 (   302 PWs)   bands (ev):

    -5.4218  -0.6403   4.3483   4.3483

          k =-0.2500-0.2500-0.2500 (   311 PWs)   bands (ev):

    -6.3575   1.7035   4.6970   4.6970

          k =-0.5000 0.0000-0.5000 (   315 PWs)   bands (ev):

    -5.5287   0.5005   2.1485   4.2663

          k = 0.2500-0.2500 0.2500 (   311 PWs)   bands (ev):

    -6.3575   1.7035   4.6970   4.6970

          k = 0.0000 0.0000 0.0000 (   331 PWs)   bands (ev):

    -6.9797   5.1761   5.1761   5.1761

          k =-0.7500-0.2500 0.2500 (   311 PWs)   bands (ev):

    -5.1819  -0.0415   2.3125   3.5086

          k =-1.0000 0.0000 0.0000 (   302 PWs)   bands (ev):

    -4.8217  -0.4470   2.9274   2.9274

          k =-0.7500 0.2500-0.2500 (   311 PWs)   bands (ev):

    -5.1819  -0.0415   2.3125   3.5086

          k =-1.0000 0.5000-0.5000 (   315 PWs)   bands (ev):

    -5.5287   0.5005   2.1485   4.2663

          k =-0.2500-0.2500-0.7500 (   311 PWs)   bands (ev):

    -5.1819  -0.0415   2.3125   3.5086

          k =-0.5000 0.0000-1.0000 (   308 PWs)   bands (ev):

    -4.7852  -0.0517   1.7949   2.1910

          k = 0.2500-0.2500 0.7500 (   311 PWs)   bands (ev):

    -5.1819  -0.0415   2.3125   3.5086

          k = 0.0000 0.0000 0.5000 (   311 PWs)   bands (ev):

    -6.1430   1.9396   3.7847   3.7847

          k =-0.2500 0.2500 0.7500 (   311 PWs)   bands (ev):

    -5.1819  -0.0415   2.3125   3.5086

          k =-0.5000 0.5000 0.5000 (   302 PWs)   bands (ev):

    -5.4218  -0.6403   4.3483   4.3483

     highest occupied level (ev):     5.1761

     Writing output data file alas.save

                                                                                

     bravais-lattice index     =            2
     lattice parameter (alat)  =      10.5000  a.u.
     unit-cell volume          =     289.4062 (a.u.)^3
     number of atoms/cell      =            2
     number of atomic types    =            2
     kinetic-energy cut-off    =      16.0000  Ry
     charge density cut-off    =      64.0000  Ry
     convergence threshold     =      1.0E-12
     beta                      =       0.7000
     number of iterations used =            4
     Exchange-correlation      =  SLA  PZ   NOGX NOGC ( 1  1  0  0 0 0)


     celldm(1)=   10.50000  celldm(2)=    0.00000  celldm(3)=    0.00000
     celldm(4)=    0.00000  celldm(5)=    0.00000  celldm(6)=    0.00000

     crystal axes: (cart. coord. in units of alat)
               a(1) = ( -0.5000  0.0000  0.5000 )  
               a(2) = (  0.0000  0.5000  0.5000 )  
               a(3) = ( -0.5000  0.5000  0.0000 )  

     reciprocal axes: (cart. coord. in units 2 pi/alat)
               b(1) = ( -1.0000 -1.0000  1.0000 )  
               b(2) = (  1.0000  1.0000  1.0000 )  
               b(3) = ( -1.0000  1.0000 -1.0000 )  


     Atoms inside the unit cell: 

     Cartesian axes

     site n.  atom      mass           positions (alat units)
        1     Al  26.9800   tau(    1) = (    0.00000    0.00000    0.00000  )
        2     As  74.9200   tau(    2) = (    0.25000    0.25000    0.25000  )

     Computing dynamical matrix for 
                    q = (  -0.2500000   0.2500000  -0.2500000 )

      6 Sym.Ops. (no q -> -q+G )


     G cutoff =  178.7306  (   1224 G-vectors)     FFT grid: ( 20, 20, 20)
     number of k points=    20

     PseudoPot. # 1 for Al read from file:
     /home/pietro/trunk/espresso/pseudo/Al.pz-vbc.UPF
     MD5 check sum: 614279c88ff8d45c90147292d03ed420
     Pseudo is Norm-conserving, Zval =  3.0
     Generated by new atomic code, or converted to UPF format
     Using radial grid of  171 points,  2 beta functions with: 
                l(1) =   0
                l(2) =   1

     PseudoPot. # 2 for As read from file:
     /home/pietro/trunk/espresso/pseudo/As.pz-bhs.UPF
     MD5 check sum: 451cd3365afcfc94d28b1934951c34a8
     Pseudo is Norm-conserving, Zval =  5.0
     Generated by new atomic code, or converted to UPF format
     Using radial grid of  525 points,  2 beta functions with: 
                l(1) =   0
                l(2) =   1

     Mode symmetry, C_3v (3m)   point group:


     Atomic displacements:
     There are   4 irreducible representations

     Representation     1      1 modes -A_1  L_1  To be done

     Representation     2      1 modes -A_1  L_1  To be done

     Representation     3      2 modes -E    L_3  To be done

     Representation     4      2 modes -E    L_3  To be done



     Alpha used in Ewald sum =   0.7000
     PHONON       :     1.21s CPU         1.26s WALL



     Representation #  1 mode #   1

     Self-consistent Calculation

      iter #   1 total cpu time :     1.3 secs   av.it.:   6.2
      thresh= 1.000E-02 alpha_mix =  0.700 |ddv_scf|^2 =  3.084E-03

      iter #   2 total cpu time :     1.4 secs   av.it.:   7.6
      thresh= 5.553E-03 alpha_mix =  0.700 |ddv_scf|^2 =  2.964E-02

      iter #   3 total cpu time :     1.4 secs   av.it.:   6.8
      thresh= 1.000E-02 alpha_mix =  0.700 |ddv_scf|^2 =  6.320E-06

      iter #   4 total cpu time :     1.5 secs   av.it.:   7.2
      thresh= 2.514E-04 alpha_mix =  0.700 |ddv_scf|^2 =  1.384E-07

      iter #   5 total cpu time :     1.5 secs   av.it.:   7.6
      thresh= 3.720E-05 alpha_mix =  0.700 |ddv_scf|^2 =  4.393E-09

      iter #   6 total cpu time :     1.6 secs   av.it.:   7.0
      thresh= 6.628E-06 alpha_mix =  0.700 |ddv_scf|^2 =  5.366E-10

      iter #   7 total cpu time :     1.7 secs   av.it.:   7.1
      thresh= 2.316E-06 alpha_mix =  0.700 |ddv_scf|^2 =  3.527E-11

      iter #   8 total cpu time :     1.7 secs   av.it.:   7.2
      thresh= 5.939E-07 alpha_mix =  0.700 |ddv_scf|^2 =  2.004E-13

     End of self-consistent calculation

     Convergence has been achieved 


     Representation #  2 mode #   2

     Self-consistent Calculation

      iter #   1 total cpu time :     1.8 secs   av.it.:   5.6
      thresh= 1.000E-02 alpha_mix =  0.700 |ddv_scf|^2 =  6.514E-04

      iter #   2 total cpu time :     1.8 secs   av.it.:   7.6
      thresh= 2.552E-03 alpha_mix =  0.700 |ddv_scf|^2 =  5.928E-03

      iter #   3 total cpu time :     1.9 secs   av.it.:   6.1
      thresh= 7.699E-03 alpha_mix =  0.700 |ddv_scf|^2 =  2.217E-07

      iter #   4 total cpu time :     1.9 secs   av.it.:   8.2
      thresh= 4.709E-05 alpha_mix =  0.700 |ddv_scf|^2 =  8.193E-09

      iter #   5 total cpu time :     2.0 secs   av.it.:   8.1
      thresh= 9.051E-06 alpha_mix =  0.700 |ddv_scf|^2 =  2.148E-09

      iter #   6 total cpu time :     2.1 secs   av.it.:   6.9
      thresh= 4.635E-06 alpha_mix =  0.700 |ddv_scf|^2 =  2.862E-10

      iter #   7 total cpu time :     2.1 secs   av.it.:   7.4
      thresh= 1.692E-06 alpha_mix =  0.700 |ddv_scf|^2 =  1.868E-11

      iter #   8 total cpu time :     2.2 secs   av.it.:   7.5
      thresh= 4.322E-07 alpha_mix =  0.700 |ddv_scf|^2 =  3.656E-13

     End of self-consistent calculation

     Convergence has been achieved 


     Representation #  3 modes #   3  4

     Self-consistent Calculation

      iter #   1 total cpu time :     2.3 secs   av.it.:   6.0
      thresh= 1.000E-02 alpha_mix =  0.700 |ddv_scf|^2 =  1.311E-06

      iter #   2 total cpu time :     2.4 secs   av.it.:   9.2
      thresh= 1.145E-04 alpha_mix =  0.700 |ddv_scf|^2 =  9.085E-08

      iter #   3 total cpu time :     2.6 secs   av.it.:   9.2
      thresh= 3.014E-05 alpha_mix =  0.700 |ddv_scf|^2 =  8.907E-11

      iter #   4 total cpu time :     2.7 secs   av.it.:   9.2
      thresh= 9.437E-07 alpha_mix =  0.700 |ddv_scf|^2 =  1.650E-12

      iter #   5 total cpu time :     2.8 secs   av.it.:   9.1
      thresh= 1.284E-07 alpha_mix =  0.700 |ddv_scf|^2 =  1.862E-14

     End of self-consistent calculation

     Convergence has been achieved 


     Representation #  4 modes #   5  6

     Self-consistent Calculation

      iter #   1 total cpu time :     2.9 secs   av.it.:   5.1
      thresh= 1.000E-02 alpha_mix =  0.700 |ddv_scf|^2 =  1.108E-07

      iter #   2 total cpu time :     3.1 secs   av.it.:   9.3
      thresh= 3.328E-05 alpha_mix =  0.700 |ddv_scf|^2 =  4.513E-09

      iter #   3 total cpu time :     3.2 secs   av.it.:   9.2
      thresh= 6.718E-06 alpha_mix =  0.700 |ddv_scf|^2 =  1.323E-10

      iter #   4 total cpu time :     3.3 secs   av.it.:   9.1
      thresh= 1.150E-06 alpha_mix =  0.700 |ddv_scf|^2 =  6.942E-12

      iter #   5 total cpu time :     3.5 secs   av.it.:   8.8
      thresh= 2.635E-07 alpha_mix =  0.700 |ddv_scf|^2 =  1.104E-15

     End of self-consistent calculation

     Convergence has been achieved 

     Number of q in the star =    4
     List of q in the star:
          1  -0.250000000   0.250000000  -0.250000000
          2   0.250000000  -0.250000000  -0.250000000
          3  -0.250000000  -0.250000000   0.250000000
          4   0.250000000   0.250000000   0.250000000
     In addition there is the -q list: 
          1   0.250000000  -0.250000000   0.250000000
          2  -0.250000000   0.250000000   0.250000000
          3   0.250000000   0.250000000  -0.250000000
          4  -0.250000000  -0.250000000  -0.250000000

     Diagonalizing the dynamical matrix

     q = (   -0.250000000   0.250000000  -0.250000000 ) 

 **************************************************************************
     freq (    1) =       1.761219 [THz] =      58.747937 [cm-1]
     freq (    2) =       1.761219 [THz] =      58.747937 [cm-1]
     freq (    3) =       4.534379 [THz] =     151.250591 [cm-1]
     freq (    4) =      11.004842 [THz] =     367.082018 [cm-1]
     freq (    5) =      11.004842 [THz] =     367.082018 [cm-1]
     freq (    6) =      12.136609 [THz] =     404.833710 [cm-1]
 **************************************************************************

     Mode symmetry, C_3v (3m)   point group:

     freq (  1 -  2) =         58.7  [cm-1]   --> E    L_3           
     freq (  3 -  3) =        151.3  [cm-1]   --> A_1  L_1           
     freq (  4 -  5) =        367.1  [cm-1]   --> E    L_3           
     freq (  6 -  6) =        404.8  [cm-1]   --> A_1  L_1           

     Calculation of q =    0.5000000  -0.5000000   0.5000000

     Parallelization info
     --------------------
     sticks:   dense  smooth     PW     G-vecs:    dense   smooth      PW
     Min         120     120     42                 1221     1221     267
     Max         121     121     43                 1224     1224     270
     Sum         241     241     85                 2445     2445     537



     bravais-lattice index     =            2
     lattice parameter (alat)  =      10.5000  a.u.
     unit-cell volume          =     289.4062 (a.u.)^3
     number of atoms/cell      =            2
     number of atomic types    =            2
     number of electrons       =         8.00
     number of Kohn-Sham states=            4
     kinetic-energy cutoff     =      16.0000  Ry
     charge density cutoff     =      64.0000  Ry
     Exchange-correlation      =  SLA  PZ   NOGX NOGC ( 1  1  0  0 0 0)

     celldm(1)=  10.500000  celldm(2)=   0.000000  celldm(3)=   0.000000
     celldm(4)=   0.000000  celldm(5)=   0.000000  celldm(6)=   0.000000

     crystal axes: (cart. coord. in units of alat)
               a(1) = (  -0.500000   0.000000   0.500000 )  
               a(2) = (   0.000000   0.500000   0.500000 )  
               a(3) = (  -0.500000   0.500000   0.000000 )  

     reciprocal axes: (cart. coord. in units 2 pi/alat)
               b(1) = ( -1.000000 -1.000000  1.000000 )  
               b(2) = (  1.000000  1.000000  1.000000 )  
               b(3) = ( -1.000000  1.000000 -1.000000 )  


     PseudoPot. # 1 for Al read from file:
     /home/pietro/trunk/espresso/pseudo/Al.pz-vbc.UPF
     MD5 check sum: 614279c88ff8d45c90147292d03ed420
     Pseudo is Norm-conserving, Zval =  3.0
     Generated by new atomic code, or converted to UPF format
     Using radial grid of  171 points,  2 beta functions with: 
                l(1) =   0
                l(2) =   1

     PseudoPot. # 2 for As read from file:
     /home/pietro/trunk/espresso/pseudo/As.pz-bhs.UPF
     MD5 check sum: 451cd3365afcfc94d28b1934951c34a8
     Pseudo is Norm-conserving, Zval =  5.0
     Generated by new atomic code, or converted to UPF format
     Using radial grid of  525 points,  2 beta functions with: 
                l(1) =   0
                l(2) =   1

     atomic species   valence    mass     pseudopotential
        Al             3.00    26.98000     Al( 1.00)
        As             5.00    74.92000     As( 1.00)

     24 Sym. Ops. (no inversion) found



   Cartesian axes

     site n.     atom                  positions (alat units)
         1           Al  tau(   1) = (   0.0000000   0.0000000   0.0000000  )
         2           As  tau(   2) = (   0.2500000   0.2500000   0.2500000  )

     number of k points=    10
                       cart. coord. in units 2pi/alat
        k(    1) = (   0.2500000   0.2500000   0.2500000), wk =   0.3750000
        k(    2) = (   0.7500000  -0.2500000   0.7500000), wk =   0.0000000
        k(    3) = (   0.2500000   0.2500000   0.7500000), wk =   0.7500000
        k(    4) = (   0.7500000  -0.2500000   1.2500000), wk =   0.0000000
        k(    5) = (  -0.2500000   0.2500000  -0.2500000), wk =   0.1250000
        k(    6) = (   0.2500000  -0.2500000   0.2500000), wk =   0.0000000
        k(    7) = (  -0.7500000  -0.2500000   0.2500000), wk =   0.3750000
        k(    8) = (  -0.2500000  -0.7500000   0.7500000), wk =   0.0000000
        k(    9) = (  -0.7500000   0.2500000  -0.2500000), wk =   0.3750000
        k(   10) = (  -0.2500000  -0.2500000   0.2500000), wk =   0.0000000

     Dense  grid:     2445 G-vectors     FFT dimensions: (  20,  20,  20)

     Estimated max dynamical RAM per process >       0.51Mb

     Estimated total allocated dynamical RAM >       1.02Mb

     The potential is recalculated from file :
     /home/pietro/trunk/espresso/tempdir/_ph0/alas.save/charge-density.dat

     Starting wfc are    8 atomic wfcs

     Band Structure Calculation
     Davidson diagonalization with overlap

     ethr =  1.25E-10,  avg # of iterations = 11.6

     total cpu time spent up to now is        0.3 secs

     End of band structure calculation

          k = 0.2500 0.2500 0.2500 (   311 PWs)   bands (ev):

    -6.3575   1.7035   4.6970   4.6970

          k = 0.7500-0.2500 0.7500 (   311 PWs)   bands (ev):

    -5.1819  -0.0415   2.3125   3.5086

          k = 0.2500 0.2500 0.7500 (   311 PWs)   bands (ev):

    -5.1819  -0.0415   2.3125   3.5086

          k = 0.7500-0.2500 1.2500 (   311 PWs)   bands (ev):

    -5.1819  -0.0415   2.3125   3.5086

          k =-0.2500 0.2500-0.2500 (   311 PWs)   bands (ev):

    -6.3575   1.7035   4.6970   4.6970

          k = 0.2500-0.2500 0.2500 (   311 PWs)   bands (ev):

    -6.3575   1.7035   4.6970   4.6970

          k =-0.7500-0.2500 0.2500 (   311 PWs)   bands (ev):

    -5.1819  -0.0415   2.3125   3.5086

          k =-0.2500-0.7500 0.7500 (   311 PWs)   bands (ev):

    -5.1819  -0.0415   2.3125   3.5086

          k =-0.7500 0.2500-0.2500 (   311 PWs)   bands (ev):

    -5.1819  -0.0415   2.3125   3.5086

          k =-0.2500-0.2500 0.2500 (   311 PWs)   bands (ev):

    -6.3575   1.7035   4.6970   4.6970

     highest occupied level (ev):     4.6970

     Writing output data file alas.save

                                                                                

     bravais-lattice index     =            2
     lattice parameter (alat)  =      10.5000  a.u.
     unit-cell volume          =     289.4062 (a.u.)^3
     number of atoms/cell      =            2
     number of atomic types    =            2
     kinetic-energy cut-off    =      16.0000  Ry
     charge density cut-off    =      64.0000  Ry
     convergence threshold     =      1.0E-12
     beta                      =       0.7000
     number of iterations used =            4
     Exchange-correlation      =  SLA  PZ   NOGX NOGC ( 1  1  0  0 0 0)


     celldm(1)=   10.50000  celldm(2)=    0.00000  celldm(3)=    0.00000
     celldm(4)=    0.00000  celldm(5)=    0.00000  celldm(6)=    0.00000

     crystal axes: (cart. coord. in units of alat)
               a(1) = ( -0.5000  0.0000  0.5000 )  
               a(2) = (  0.0000  0.5000  0.5000 )  
               a(3) = ( -0.5000  0.5000  0.0000 )  

     reciprocal axes: (cart. coord. in units 2 pi/alat)
               b(1) = ( -1.0000 -1.0000  1.0000 )  
               b(2) = (  1.0000  1.0000  1.0000 )  
               b(3) = ( -1.0000  1.0000 -1.0000 )  


     Atoms inside the unit cell: 

     Cartesian axes

     site n.  atom      mass           positions (alat units)
        1     Al  26.9800   tau(    1) = (    0.00000    0.00000    0.00000  )
        2     As  74.9200   tau(    2) = (    0.25000    0.25000    0.25000  )

     Computing dynamical matrix for 
                    q = (   0.5000000  -0.5000000   0.5000000 )

      7 Sym.Ops. (with q -> -q+G )


     G cutoff =  178.7306  (   1224 G-vectors)     FFT grid: ( 20, 20, 20)
     number of k points=    10

     PseudoPot. # 1 for Al read from file:
     /home/pietro/trunk/espresso/pseudo/Al.pz-vbc.UPF
     MD5 check sum: 614279c88ff8d45c90147292d03ed420
     Pseudo is Norm-conserving, Zval =  3.0
     Generated by new atomic code, or converted to UPF format
     Using radial grid of  171 points,  2 beta functions with: 
                l(1) =   0
                l(2) =   1

     PseudoPot. # 2 for As read from file:
     /home/pietro/trunk/espresso/pseudo/As.pz-bhs.UPF
     MD5 check sum: 451cd3365afcfc94d28b1934951c34a8
     Pseudo is Norm-conserving, Zval =  5.0
     Generated by new atomic code, or converted to UPF format
     Using radial grid of  525 points,  2 beta functions with: 
                l(1) =   0
                l(2) =   1

     Mode symmetry, C_3v (3m)   point group:


     Atomic displacements:
     There are   4 irreducible representations

     Representation     1      1 modes -A_1  L_1  To be done

     Representation     2      1 modes -A_1  L_1  To be done

     Representation     3      2 modes -E    L_3  To be done

     Representation     4      2 modes -E    L_3  To be done



     Alpha used in Ewald sum =   0.7000
     PHONON       :     3.50s CPU         3.64s WALL



     Representation #  1 mode #   1

     Self-consistent Calculation

      iter #   1 total cpu time :     3.7 secs   av.it.:   6.2
      thresh= 1.000E-02 alpha_mix =  0.700 |ddv_scf|^2 =  3.570E-04

      iter #   2 total cpu time :     3.7 secs   av.it.:   8.2
      thresh= 1.889E-03 alpha_mix =  0.700 |ddv_scf|^2 =  1.022E-03

      iter #   3 total cpu time :     3.7 secs   av.it.:   7.4
      thresh= 3.198E-03 alpha_mix =  0.700 |ddv_scf|^2 =  5.276E-08

      iter #   4 total cpu time :     3.8 secs   av.it.:   8.0
      thresh= 2.297E-05 alpha_mix =  0.700 |ddv_scf|^2 =  8.131E-09

      iter #   5 total cpu time :     3.8 secs   av.it.:   7.4
      thresh= 9.017E-06 alpha_mix =  0.700 |ddv_scf|^2 =  4.322E-11

      iter #   6 total cpu time :     3.8 secs   av.it.:   8.4
      thresh= 6.574E-07 alpha_mix =  0.700 |ddv_scf|^2 =  4.536E-12

      iter #   7 total cpu time :     3.9 secs   av.it.:   7.8
      thresh= 2.130E-07 alpha_mix =  0.700 |ddv_scf|^2 =  8.030E-15

     End of self-consistent calculation

     Convergence has been achieved 


     Representation #  2 mode #   2

     Self-consistent Calculation

      iter #   1 total cpu time :     3.9 secs   av.it.:   5.4
      thresh= 1.000E-02 alpha_mix =  0.700 |ddv_scf|^2 =  5.801E-05

      iter #   2 total cpu time :     3.9 secs   av.it.:   8.2
      thresh= 7.616E-04 alpha_mix =  0.700 |ddv_scf|^2 =  1.452E-04

      iter #   3 total cpu time :     4.0 secs   av.it.:   7.4
      thresh= 1.205E-03 alpha_mix =  0.700 |ddv_scf|^2 =  6.718E-07

      iter #   4 total cpu time :     4.0 secs   av.it.:   7.6
      thresh= 8.196E-05 alpha_mix =  0.700 |ddv_scf|^2 =  4.034E-09

      iter #   5 total cpu time :     4.0 secs   av.it.:   8.0
      thresh= 6.352E-06 alpha_mix =  0.700 |ddv_scf|^2 =  7.132E-11

      iter #   6 total cpu time :     4.1 secs   av.it.:   8.4
      thresh= 8.445E-07 alpha_mix =  0.700 |ddv_scf|^2 =  1.223E-12

      iter #   7 total cpu time :     4.1 secs   av.it.:   8.2
      thresh= 1.106E-07 alpha_mix =  0.700 |ddv_scf|^2 =  2.315E-14

     End of self-consistent calculation

     Convergence has been achieved 


     Representation #  3 modes #   3  4

     Self-consistent Calculation

      iter #   1 total cpu time :     4.2 secs   av.it.:   6.2
      thresh= 1.000E-02 alpha_mix =  0.700 |ddv_scf|^2 =  1.540E-06

      iter #   2 total cpu time :     4.2 secs   av.it.:   9.0
      thresh= 1.241E-04 alpha_mix =  0.700 |ddv_scf|^2 =  1.304E-07

      iter #   3 total cpu time :     4.3 secs   av.it.:   9.0
      thresh= 3.612E-05 alpha_mix =  0.700 |ddv_scf|^2 =  8.947E-11

      iter #   4 total cpu time :     4.4 secs   av.it.:   9.2
      thresh= 9.459E-07 alpha_mix =  0.700 |ddv_scf|^2 =  7.084E-13

     End of self-consistent calculation

     Convergence has been achieved 


     Representation #  4 modes #   5  6

     Self-consistent Calculation

      iter #   1 total cpu time :     4.4 secs   av.it.:   4.8
      thresh= 1.000E-02 alpha_mix =  0.700 |ddv_scf|^2 =  1.480E-07

      iter #   2 total cpu time :     4.5 secs   av.it.:   9.0
      thresh= 3.848E-05 alpha_mix =  0.700 |ddv_scf|^2 =  8.834E-09

      iter #   3 total cpu time :     4.6 secs   av.it.:   9.0
      thresh= 9.399E-06 alpha_mix =  0.700 |ddv_scf|^2 =  1.469E-10

      iter #   4 total cpu time :     4.6 secs   av.it.:   9.1
      thresh= 1.212E-06 alpha_mix =  0.700 |ddv_scf|^2 =  7.518E-12

      iter #   5 total cpu time :     4.7 secs   av.it.:   8.3
      thresh= 2.742E-07 alpha_mix =  0.700 |ddv_scf|^2 =  2.750E-15

     End of self-consistent calculation

     Convergence has been achieved 

     Number of q in the star =    4
     List of q in the star:
          1   0.500000000  -0.500000000   0.500000000
          2  -0.500000000   0.500000000   0.500000000
          3   0.500000000   0.500000000  -0.500000000
          4  -0.500000000  -0.500000000  -0.500000000

     Diagonalizing the dynamical matrix

     q = (    0.500000000  -0.500000000   0.500000000 ) 

 **************************************************************************
     freq (    1) =       2.016111 [THz] =      67.250240 [cm-1]
     freq (    2) =       2.016111 [THz] =      67.250240 [cm-1]
     freq (    3) =       6.494356 [THz] =     216.628412 [cm-1]
     freq (    4) =      10.940862 [THz] =     364.947877 [cm-1]
     freq (    5) =      10.940862 [THz] =     364.947877 [cm-1]
     freq (    6) =      11.551690 [THz] =     385.322900 [cm-1]
 **************************************************************************

     Mode symmetry, C_3v (3m)   point group:

     freq (  1 -  2) =         67.3  [cm-1]   --> E    L_3           
     freq (  3 -  3) =        216.6  [cm-1]   --> A_1  L_1           
     freq (  4 -  5) =        364.9  [cm-1]   --> E    L_3           
     freq (  6 -  6) =        385.3  [cm-1]   --> A_1  L_1           

     Calculation of q =    0.0000000   0.5000000   0.0000000

     Parallelization info
     --------------------
     sticks:   dense  smooth     PW     G-vecs:    dense   smooth      PW
     Min         120     120     42                 1221     1221     264
     Max         121     121     43                 1224     1224     267
     Sum         241     241     85                 2445     2445     531



     bravais-lattice index     =            2
     lattice parameter (alat)  =      10.5000  a.u.
     unit-cell volume          =     289.4062 (a.u.)^3
     number of atoms/cell      =            2
     number of atomic types    =            2
     number of electrons       =         8.00
     number of Kohn-Sham states=            4
     kinetic-energy cutoff     =      16.0000  Ry
     charge density cutoff     =      64.0000  Ry
     Exchange-correlation      =  SLA  PZ   NOGX NOGC ( 1  1  0  0 0 0)

     celldm(1)=  10.500000  celldm(2)=   0.000000  celldm(3)=   0.000000
     celldm(4)=   0.000000  celldm(5)=   0.000000  celldm(6)=   0.000000

     crystal axes: (cart. coord. in units of alat)
               a(1) = (  -0.500000   0.000000   0.500000 )  
               a(2) = (   0.000000   0.500000   0.500000 )  
               a(3) = (  -0.500000   0.500000   0.000000 )  

     reciprocal axes: (cart. coord. in units 2 pi/alat)
               b(1) = ( -1.000000 -1.000000  1.000000 )  
               b(2) = (  1.000000  1.000000  1.000000 )  
               b(3) = ( -1.000000  1.000000 -1.000000 )  


     PseudoPot. # 1 for Al read from file:
     /home/pietro/trunk/espresso/pseudo/Al.pz-vbc.UPF
     MD5 check sum: 614279c88ff8d45c90147292d03ed420
     Pseudo is Norm-conserving, Zval =  3.0
     Generated by new atomic code, or converted to UPF format
     Using radial grid of  171 points,  2 beta functions with: 
                l(1) =   0
                l(2) =   1

     PseudoPot. # 2 for As read from file:
     /home/pietro/trunk/espresso/pseudo/As.pz-bhs.UPF
     MD5 check sum: 451cd3365afcfc94d28b1934951c34a8
     Pseudo is Norm-conserving, Zval =  5.0
     Generated by new atomic code, or converted to UPF format
     Using radial grid of  525 points,  2 beta functions with: 
                l(1) =   0
                l(2) =   1

     atomic species   valence    mass     pseudopotential
        Al             3.00    26.98000     Al( 1.00)
        As             5.00    74.92000     As( 1.00)

     24 Sym. Ops. (no inversion) found



   Cartesian axes

     site n.     atom                  positions (alat units)
         1           Al  tau(   1) = (   0.0000000   0.0000000   0.0000000  )
         2           As  tau(   2) = (   0.2500000   0.2500000   0.2500000  )

     number of k points=    24
                       cart. coord. in units 2pi/alat
        k(    1) = (   0.2500000   0.2500000   0.2500000), wk =   0.1250000
        k(    2) = (   0.2500000   0.7500000   0.2500000), wk =   0.0000000
        k(    3) = (   0.2500000   0.2500000   0.7500000), wk =   0.2500000
        k(    4) = (   0.2500000   0.7500000   0.7500000), wk =   0.0000000
        k(    5) = (  -0.2500000  -0.2500000   0.2500000), wk =   0.1250000
        k(    6) = (  -0.2500000   0.2500000   0.2500000), wk =   0.0000000
        k(    7) = (  -0.2500000  -0.2500000  -0.2500000), wk =   0.1250000
        k(    8) = (  -0.2500000   0.2500000  -0.2500000), wk =   0.0000000
        k(    9) = (   0.2500000   0.2500000  -0.2500000), wk =   0.1250000
        k(   10) = (   0.2500000   0.7500000  -0.2500000), wk =   0.0000000
        k(   11) = (  -0.2500000  -0.2500000   0.7500000), wk =   0.2500000
        k(   12) = (  -0.2500000   0.2500000   0.7500000), wk =   0.0000000
        k(   13) = (  -0.2500000  -0.7500000   0.2500000), wk =   0.1250000
        k(   14) = (  -0.2500000  -0.2500000   0.2500000), wk =   0.0000000
        k(   15) = (  -0.2500000   0.7500000  -0.2500000), wk =   0.1250000
        k(   16) = (  -0.2500000   1.2500000  -0.2500000), wk =   0.0000000
        k(   17) = (  -0.2500000  -0.2500000  -0.7500000), wk =   0.2500000
        k(   18) = (  -0.2500000   0.2500000  -0.7500000), wk =   0.0000000
        k(   19) = (   0.2500000   0.2500000  -0.7500000), wk =   0.2500000
        k(   20) = (   0.2500000   0.7500000  -0.7500000), wk =   0.0000000
        k(   21) = (  -0.2500000   0.7500000   0.2500000), wk =   0.1250000
        k(   22) = (  -0.2500000   1.2500000   0.2500000), wk =   0.0000000
        k(   23) = (  -0.2500000  -0.7500000  -0.2500000), wk =   0.1250000
        k(   24) = (  -0.2500000  -0.2500000  -0.2500000), wk =   0.0000000

     Dense  grid:     2445 G-vectors     FFT dimensions: (  20,  20,  20)

     Estimated max dynamical RAM per process >       0.51Mb

     Estimated total allocated dynamical RAM >       1.02Mb

     The potential is recalculated from file :
     /home/pietro/trunk/espresso/tempdir/_ph0/alas.save/charge-density.dat

     Starting wfc are    8 atomic wfcs

     Band Structure Calculation
     Davidson diagonalization with overlap

     ethr =  1.25E-10,  avg # of iterations = 11.7

     total cpu time spent up to now is        0.6 secs

     End of band structure calculation

          k = 0.2500 0.2500 0.2500 (   311 PWs)   bands (ev):

    -6.3575   1.7035   4.6970   4.6970

          k = 0.2500 0.7500 0.2500 (   311 PWs)   bands (ev):

    -5.1819  -0.0415   2.3125   3.5086

          k = 0.2500 0.2500 0.7500 (   311 PWs)   bands (ev):

    -5.1819  -0.0415   2.3125   3.5086

          k = 0.2500 0.7500 0.7500 (   311 PWs)   bands (ev):

    -5.1819  -0.0415   2.3125   3.5086

          k =-0.2500-0.2500 0.2500 (   311 PWs)   bands (ev):

    -6.3575   1.7035   4.6970   4.6970

          k =-0.2500 0.2500 0.2500 (   311 PWs)   bands (ev):

    -6.3575   1.7035   4.6970   4.6970

          k =-0.2500-0.2500-0.2500 (   311 PWs)   bands (ev):

    -6.3575   1.7035   4.6970   4.6970

          k =-0.2500 0.2500-0.2500 (   311 PWs)   bands (ev):

    -6.3575   1.7035   4.6970   4.6970

          k = 0.2500 0.2500-0.2500 (   311 PWs)   bands (ev):

    -6.3575   1.7035   4.6970   4.6970

          k = 0.2500 0.7500-0.2500 (   311 PWs)   bands (ev):

    -5.1819  -0.0415   2.3125   3.5086

          k =-0.2500-0.2500 0.7500 (   311 PWs)   bands (ev):

    -5.1819  -0.0415   2.3125   3.5086

          k =-0.2500 0.2500 0.7500 (   311 PWs)   bands (ev):

    -5.1819  -0.0415   2.3125   3.5086

          k =-0.2500-0.7500 0.2500 (   311 PWs)   bands (ev):

    -5.1819  -0.0415   2.3125   3.5086

          k =-0.2500-0.2500 0.2500 (   311 PWs)   bands (ev):

    -6.3575   1.7035   4.6970   4.6970

          k =-0.2500 0.7500-0.2500 (   311 PWs)   bands (ev):

    -5.1819  -0.0415   2.3125   3.5086

          k =-0.2500 1.2500-0.2500 (   311 PWs)   bands (ev):

    -5.1819  -0.0415   2.3125   3.5086

          k =-0.2500-0.2500-0.7500 (   311 PWs)   bands (ev):

    -5.1819  -0.0415   2.3125   3.5086

          k =-0.2500 0.2500-0.7500 (   311 PWs)   bands (ev):

    -5.1819  -0.0415   2.3125   3.5086

          k = 0.2500 0.2500-0.7500 (   311 PWs)   bands (ev):

    -5.1819  -0.0415   2.3125   3.5086

          k = 0.2500 0.7500-0.7500 (   311 PWs)   bands (ev):

    -5.1819  -0.0415   2.3125   3.5086

          k =-0.2500 0.7500 0.2500 (   311 PWs)   bands (ev):

    -5.1819  -0.0415   2.3125   3.5086

          k =-0.2500 1.2500 0.2500 (   311 PWs)   bands (ev):

    -5.1819  -0.0415   2.3125   3.5086

          k =-0.2500-0.7500-0.2500 (   311 PWs)   bands (ev):

    -5.1819  -0.0415   2.3125   3.5086

          k =-0.2500-0.2500-0.2500 (   311 PWs)   bands (ev):

    -6.3575   1.7035   4.6970   4.6970

     highest occupied level (ev):     4.6970

     Writing output data file alas.save

                                                                                

     bravais-lattice index     =            2
     lattice parameter (alat)  =      10.5000  a.u.
     unit-cell volume          =     289.4062 (a.u.)^3
     number of atoms/cell      =            2
     number of atomic types    =            2
     kinetic-energy cut-off    =      16.0000  Ry
     charge density cut-off    =      64.0000  Ry
     convergence threshold     =      1.0E-12
     beta                      =       0.7000
     number of iterations used =            4
     Exchange-correlation      =  SLA  PZ   NOGX NOGC ( 1  1  0  0 0 0)


     celldm(1)=   10.50000  celldm(2)=    0.00000  celldm(3)=    0.00000
     celldm(4)=    0.00000  celldm(5)=    0.00000  celldm(6)=    0.00000

     crystal axes: (cart. coord. in units of alat)
               a(1) = ( -0.5000  0.0000  0.5000 )  
               a(2) = (  0.0000  0.5000  0.5000 )  
               a(3) = ( -0.5000  0.5000  0.0000 )  

     reciprocal axes: (cart. coord. in units 2 pi/alat)
               b(1) = ( -1.0000 -1.0000  1.0000 )  
               b(2) = (  1.0000  1.0000  1.0000 )  
               b(3) = ( -1.0000  1.0000 -1.0000 )  


     Atoms inside the unit cell: 

     Cartesian axes

     site n.  atom      mass           positions (alat units)
        1     Al  26.9800   tau(    1) = (    0.00000    0.00000    0.00000  )
        2     As  74.9200   tau(    2) = (    0.25000    0.25000    0.25000  )

     Computing dynamical matrix for 
                    q = (   0.0000000   0.5000000   0.0000000 )

      4 Sym.Ops. (no q -> -q+G )


     G cutoff =  178.7306  (   1224 G-vectors)     FFT grid: ( 20, 20, 20)
     number of k points=    24

     PseudoPot. # 1 for Al read from file:
     /home/pietro/trunk/espresso/pseudo/Al.pz-vbc.UPF
     MD5 check sum: 614279c88ff8d45c90147292d03ed420
     Pseudo is Norm-conserving, Zval =  3.0
     Generated by new atomic code, or converted to UPF format
     Using radial grid of  171 points,  2 beta functions with: 
                l(1) =   0
                l(2) =   1

     PseudoPot. # 2 for As read from file:
     /home/pietro/trunk/espresso/pseudo/As.pz-bhs.UPF
     MD5 check sum: 451cd3365afcfc94d28b1934951c34a8
     Pseudo is Norm-conserving, Zval =  5.0
     Generated by new atomic code, or converted to UPF format
     Using radial grid of  525 points,  2 beta functions with: 
                l(1) =   0
                l(2) =   1

     Mode symmetry, C_2v (mm2)  point group:


     Atomic displacements:
     There are   6 irreducible representations

     Representation     1      1 modes -A_1  D_1  S_1  To be done

     Representation     2      1 modes -A_1  D_1  S_1  To be done

     Representation     3      1 modes -B_1  D_3  S_3  To be done

     Representation     4      1 modes -B_1  D_3  S_3  To be done

     Representation     5      1 modes -B_2  D_4  S_4  To be done

     Representation     6      1 modes -B_2  D_4  S_4  To be done



     Alpha used in Ewald sum =   0.7000
     PHONON       :     4.77s CPU         5.01s WALL



     Representation #  1 mode #   1

     Self-consistent Calculation

      iter #   1 total cpu time :     5.1 secs   av.it.:   6.5
      thresh= 1.000E-02 alpha_mix =  0.700 |ddv_scf|^2 =  1.919E-03

      iter #   2 total cpu time :     5.2 secs   av.it.:   8.0
      thresh= 4.381E-03 alpha_mix =  0.700 |ddv_scf|^2 =  1.597E-02

      iter #   3 total cpu time :     5.2 secs   av.it.:   7.0
      thresh= 1.000E-02 alpha_mix =  0.700 |ddv_scf|^2 =  2.103E-06

      iter #   4 total cpu time :     5.3 secs   av.it.:   8.3
      thresh= 1.450E-04 alpha_mix =  0.700 |ddv_scf|^2 =  2.585E-08

      iter #   5 total cpu time :     5.4 secs   av.it.:   8.8
      thresh= 1.608E-05 alpha_mix =  0.700 |ddv_scf|^2 =  1.294E-10

      iter #   6 total cpu time :     5.5 secs   av.it.:   8.2
      thresh= 1.138E-06 alpha_mix =  0.700 |ddv_scf|^2 =  3.844E-10

      iter #   7 total cpu time :     5.5 secs   av.it.:   6.9
      thresh= 1.961E-06 alpha_mix =  0.700 |ddv_scf|^2 =  2.212E-11

      iter #   8 total cpu time :     5.6 secs   av.it.:   7.2
      thresh= 4.703E-07 alpha_mix =  0.700 |ddv_scf|^2 =  7.040E-15

     End of self-consistent calculation

     Convergence has been achieved 


     Representation #  2 mode #   2

     Self-consistent Calculation

      iter #   1 total cpu time :     5.7 secs   av.it.:   5.7
      thresh= 1.000E-02 alpha_mix =  0.700 |ddv_scf|^2 =  3.752E-04

      iter #   2 total cpu time :     5.7 secs   av.it.:   8.0
      thresh= 1.937E-03 alpha_mix =  0.700 |ddv_scf|^2 =  2.909E-03

      iter #   3 total cpu time :     5.8 secs   av.it.:   6.7
      thresh= 5.394E-03 alpha_mix =  0.700 |ddv_scf|^2 =  5.668E-07

      iter #   4 total cpu time :     5.9 secs   av.it.:   7.8
      thresh= 7.529E-05 alpha_mix =  0.700 |ddv_scf|^2 =  5.682E-09

      iter #   5 total cpu time :     6.0 secs   av.it.:   8.8
      thresh= 7.538E-06 alpha_mix =  0.700 |ddv_scf|^2 =  9.876E-11

      iter #   6 total cpu time :     6.0 secs   av.it.:   8.1
      thresh= 9.938E-07 alpha_mix =  0.700 |ddv_scf|^2 =  3.919E-10

      iter #   7 total cpu time :     6.1 secs   av.it.:   6.9
      thresh= 1.980E-06 alpha_mix =  0.700 |ddv_scf|^2 =  1.077E-11

      iter #   8 total cpu time :     6.2 secs   av.it.:   7.3
      thresh= 3.281E-07 alpha_mix =  0.700 |ddv_scf|^2 =  1.771E-14

     End of self-consistent calculation

     Convergence has been achieved 


     Representation #  3 mode #   3

     Self-consistent Calculation

      iter #   1 total cpu time :     6.2 secs   av.it.:   4.9
      thresh= 1.000E-02 alpha_mix =  0.700 |ddv_scf|^2 =  1.095E-06

      iter #   2 total cpu time :     6.3 secs   av.it.:   8.4
      thresh= 1.046E-04 alpha_mix =  0.700 |ddv_scf|^2 =  1.264E-07

      iter #   3 total cpu time :     6.4 secs   av.it.:   8.2
      thresh= 3.555E-05 alpha_mix =  0.700 |ddv_scf|^2 =  6.592E-10

      iter #   4 total cpu time :     6.5 secs   av.it.:   7.9
      thresh= 2.568E-06 alpha_mix =  0.700 |ddv_scf|^2 =  2.108E-11

      iter #   5 total cpu time :     6.5 secs   av.it.:   7.8
      thresh= 4.591E-07 alpha_mix =  0.700 |ddv_scf|^2 =  3.724E-15

     End of self-consistent calculation

     Convergence has been achieved 


     Representation #  4 mode #   4

     Self-consistent Calculation

      iter #   1 total cpu time :     6.6 secs   av.it.:   5.6
      thresh= 1.000E-02 alpha_mix =  0.700 |ddv_scf|^2 =  8.766E-06

      iter #   2 total cpu time :     6.7 secs   av.it.:   8.3
      thresh= 2.961E-04 alpha_mix =  0.700 |ddv_scf|^2 =  1.179E-06

      iter #   3 total cpu time :     6.7 secs   av.it.:   8.0
      thresh= 1.086E-04 alpha_mix =  0.700 |ddv_scf|^2 =  3.848E-10

      iter #   4 total cpu time :     6.8 secs   av.it.:   8.0
      thresh= 1.962E-06 alpha_mix =  0.700 |ddv_scf|^2 =  1.526E-11

      iter #   5 total cpu time :     6.9 secs   av.it.:   8.2
      thresh= 3.907E-07 alpha_mix =  0.700 |ddv_scf|^2 =  6.625E-14

     End of self-consistent calculation

     Convergence has been achieved 


     Representation #  5 mode #   5

     Self-consistent Calculation

      iter #   1 total cpu time :     7.0 secs   av.it.:   5.8
      thresh= 1.000E-02 alpha_mix =  0.700 |ddv_scf|^2 =  8.765E-06

      iter #   2 total cpu time :     7.0 secs   av.it.:   8.4
      thresh= 2.961E-04 alpha_mix =  0.700 |ddv_scf|^2 =  1.179E-06

      iter #   3 total cpu time :     7.1 secs   av.it.:   8.2
      thresh= 1.086E-04 alpha_mix =  0.700 |ddv_scf|^2 =  3.855E-10

      iter #   4 total cpu time :     7.2 secs   av.it.:   8.0
      thresh= 1.963E-06 alpha_mix =  0.700 |ddv_scf|^2 =  1.524E-11

      iter #   5 total cpu time :     7.3 secs   av.it.:   8.2
      thresh= 3.904E-07 alpha_mix =  0.700 |ddv_scf|^2 =  6.622E-14

     End of self-consistent calculation

     Convergence has been achieved 


     Representation #  6 mode #   6

     Self-consistent Calculation

      iter #   1 total cpu time :     7.3 secs   av.it.:   4.9
      thresh= 1.000E-02 alpha_mix =  0.700 |ddv_scf|^2 =  1.095E-06

      iter #   2 total cpu time :     7.4 secs   av.it.:   8.4
      thresh= 1.046E-04 alpha_mix =  0.700 |ddv_scf|^2 =  1.260E-07

      iter #   3 total cpu time :     7.5 secs   av.it.:   8.3
      thresh= 3.550E-05 alpha_mix =  0.700 |ddv_scf|^2 =  6.608E-10

      iter #   4 total cpu time :     7.5 secs   av.it.:   7.8
      thresh= 2.571E-06 alpha_mix =  0.700 |ddv_scf|^2 =  2.119E-11

      iter #   5 total cpu time :     7.6 secs   av.it.:   7.8
      thresh= 4.603E-07 alpha_mix =  0.700 |ddv_scf|^2 =  3.809E-15

     End of self-consistent calculation

     Convergence has been achieved 

     Number of q in the star =    6
     List of q in the star:
          1   0.000000000   0.500000000   0.000000000
          2  -0.500000000   0.000000000   0.000000000
          3   0.000000000  -0.500000000   0.000000000
          4   0.000000000   0.000000000   0.500000000
          5   0.000000000   0.000000000  -0.500000000
          6   0.500000000   0.000000000   0.000000000

     Diagonalizing the dynamical matrix

     q = (    0.000000000   0.500000000   0.000000000 ) 

 **************************************************************************
     freq (    1) =       2.421092 [THz] =      80.758950 [cm-1]
     freq (    2) =       2.421092 [THz] =      80.758950 [cm-1]
     freq (    3) =       4.606158 [THz] =     153.644898 [cm-1]
     freq (    4) =      10.666714 [THz] =     355.803265 [cm-1]
     freq (    5) =      10.666714 [THz] =     355.803265 [cm-1]
     freq (    6) =      12.371374 [THz] =     412.664630 [cm-1]
 **************************************************************************

     Mode symmetry, C_2v (mm2)  point group:

     freq (  1 -  1) =         80.8  [cm-1]   --> B_1  D_3  S_3      
     freq (  2 -  2) =         80.8  [cm-1]   --> B_2  D_4  S_4      
     freq (  3 -  3) =        153.6  [cm-1]   --> A_1  D_1  S_1      
     freq (  4 -  4) =        355.8  [cm-1]   --> B_1  D_3  S_3      
     freq (  5 -  5) =        355.8  [cm-1]   --> B_2  D_4  S_4      
     freq (  6 -  6) =        412.7  [cm-1]   --> A_1  D_1  S_1      

     Calculation of q =    0.7500000  -0.2500000   0.7500000

     Parallelization info
     --------------------
     sticks:   dense  smooth     PW     G-vecs:    dense   smooth      PW
     Min         120     120     48                 1221     1221     322
     Max         121     121     49                 1224     1224     323
     Sum         241     241     97                 2445     2445     645



     bravais-lattice index     =            2
     lattice parameter (alat)  =      10.5000  a.u.
     unit-cell volume          =     289.4062 (a.u.)^3
     number of atoms/cell      =            2
     number of atomic types    =            2
     number of electrons       =         8.00
     number of Kohn-Sham states=            4
     kinetic-energy cutoff     =      16.0000  Ry
     charge density cutoff     =      64.0000  Ry
     Exchange-correlation      =  SLA  PZ   NOGX NOGC ( 1  1  0  0 0 0)

     celldm(1)=  10.500000  celldm(2)=   0.000000  celldm(3)=   0.000000
     celldm(4)=   0.000000  celldm(5)=   0.000000  celldm(6)=   0.000000

     crystal axes: (cart. coord. in units of alat)
               a(1) = (  -0.500000   0.000000   0.500000 )  
               a(2) = (   0.000000   0.500000   0.500000 )  
               a(3) = (  -0.500000   0.500000   0.000000 )  

     reciprocal axes: (cart. coord. in units 2 pi/alat)
               b(1) = ( -1.000000 -1.000000  1.000000 )  
               b(2) = (  1.000000  1.000000  1.000000 )  
               b(3) = ( -1.000000  1.000000 -1.000000 )  


     PseudoPot. # 1 for Al read from file:
     /home/pietro/trunk/espresso/pseudo/Al.pz-vbc.UPF
     MD5 check sum: 614279c88ff8d45c90147292d03ed420
     Pseudo is Norm-conserving, Zval =  3.0
     Generated by new atomic code, or converted to UPF format
     Using radial grid of  171 points,  2 beta functions with: 
                l(1) =   0
                l(2) =   1

     PseudoPot. # 2 for As read from file:
     /home/pietro/trunk/espresso/pseudo/As.pz-bhs.UPF
     MD5 check sum: 451cd3365afcfc94d28b1934951c34a8
     Pseudo is Norm-conserving, Zval =  5.0
     Generated by new atomic code, or converted to UPF format
     Using radial grid of  525 points,  2 beta functions with: 
                l(1) =   0
                l(2) =   1

     atomic species   valence    mass     pseudopotential
        Al             3.00    26.98000     Al( 1.00)
        As             5.00    74.92000     As( 1.00)

     24 Sym. Ops. (no inversion) found



   Cartesian axes

     site n.     atom                  positions (alat units)
         1           Al  tau(   1) = (   0.0000000   0.0000000   0.0000000  )
         2           As  tau(   2) = (   0.2500000   0.2500000   0.2500000  )

     number of k points=    40
                       cart. coord. in units 2pi/alat
        k(    1) = (   0.2500000   0.2500000   0.2500000), wk =   0.0625000
        k(    2) = (   1.0000000   0.0000000   1.0000000), wk =   0.0000000
        k(    3) = (   0.2500000   0.2500000   0.7500000), wk =   0.1250000
        k(    4) = (   1.0000000   0.0000000   1.5000000), wk =   0.0000000
        k(    5) = (  -0.2500000   0.2500000  -0.2500000), wk =   0.0625000
        k(    6) = (   0.5000000   0.0000000   0.5000000), wk =   0.0000000
        k(    7) = (  -0.2500000  -0.2500000   0.2500000), wk =   0.1250000
        k(    8) = (   0.5000000  -0.5000000   1.0000000), wk =   0.0000000
        k(    9) = (  -0.2500000  -0.2500000  -0.2500000), wk =   0.0625000
        k(   10) = (   0.5000000  -0.5000000   0.5000000), wk =   0.0000000
        k(   11) = (   0.2500000   0.2500000  -0.2500000), wk =   0.1250000
        k(   12) = (   1.0000000   0.0000000   0.5000000), wk =   0.0000000
        k(   13) = (   0.2500000  -0.2500000   0.2500000), wk =   0.0625000
        k(   14) = (   1.0000000  -0.5000000   1.0000000), wk =   0.0000000
        k(   15) = (  -0.2500000   0.2500000  -0.7500000), wk =   0.1250000
        k(   16) = (   0.5000000   0.0000000   0.0000000), wk =   0.0000000
        k(   17) = (  -0.2500000  -0.2500000   0.7500000), wk =   0.1250000
        k(   18) = (   0.5000000  -0.5000000   1.5000000), wk =   0.0000000
        k(   19) = (  -0.2500000  -0.7500000   0.2500000), wk =   0.1250000
        k(   20) = (   0.5000000  -1.0000000   1.0000000), wk =   0.0000000
        k(   21) = (  -0.7500000  -0.2500000   0.2500000), wk =   0.1250000
        k(   22) = (   0.0000000  -0.5000000   1.0000000), wk =   0.0000000
        k(   23) = (  -0.2500000   0.7500000  -0.2500000), wk =   0.0625000
        k(   24) = (   0.5000000   0.5000000   0.5000000), wk =   0.0000000
        k(   25) = (   0.2500000   0.7500000   0.2500000), wk =   0.0625000
        k(   26) = (   1.0000000   0.5000000   1.0000000), wk =   0.0000000
        k(   27) = (  -0.2500000  -0.2500000  -0.7500000), wk =   0.1250000
        k(   28) = (   0.5000000  -0.5000000   0.0000000), wk =   0.0000000
        k(   29) = (   0.2500000   0.2500000  -0.7500000), wk =   0.1250000
        k(   30) = (   1.0000000   0.0000000   0.0000000), wk =   0.0000000
        k(   31) = (   0.2500000  -0.2500000   0.7500000), wk =   0.1250000
        k(   32) = (   1.0000000  -0.5000000   1.5000000), wk =   0.0000000
        k(   33) = (  -0.2500000   0.2500000   0.7500000), wk =   0.1250000
        k(   34) = (   0.5000000   0.0000000   1.5000000), wk =   0.0000000
        k(   35) = (  -0.2500000   0.7500000   0.2500000), wk =   0.1250000
        k(   36) = (   0.5000000   0.5000000   1.0000000), wk =   0.0000000
        k(   37) = (  -0.2500000  -0.7500000  -0.2500000), wk =   0.0625000
        k(   38) = (   0.5000000  -1.0000000   0.5000000), wk =   0.0000000
        k(   39) = (   0.2500000  -0.7500000   0.2500000), wk =   0.0625000
        k(   40) = (   1.0000000  -1.0000000   1.0000000), wk =   0.0000000

     Dense  grid:     2445 G-vectors     FFT dimensions: (  20,  20,  20)

     Estimated max dynamical RAM per process >       0.51Mb

     Estimated total allocated dynamical RAM >       1.02Mb

     The potential is recalculated from file :
     /home/pietro/trunk/espresso/tempdir/_ph0/alas.save/charge-density.dat

     Starting wfc are    8 atomic wfcs

     Band Structure Calculation
     Davidson diagonalization with overlap

     ethr =  1.25E-10,  avg # of iterations = 11.0

     total cpu time spent up to now is        1.0 secs

     End of band structure calculation

          k = 0.2500 0.2500 0.2500 (   311 PWs)   bands (ev):

    -6.3575   1.7035   4.6970   4.6970

          k = 1.0000 0.0000 1.0000 (   302 PWs)   bands (ev):

    -4.8217  -0.4470   2.9274   2.9274

          k = 0.2500 0.2500 0.7500 (   311 PWs)   bands (ev):

    -5.1819  -0.0415   2.3125   3.5086

          k = 1.0000 0.0000 1.5000 (   308 PWs)   bands (ev):

    -4.7852  -0.0517   1.7949   2.1910

          k =-0.2500 0.2500-0.2500 (   311 PWs)   bands (ev):

    -6.3575   1.7035   4.6970   4.6970

          k = 0.5000 0.0000 0.5000 (   315 PWs)   bands (ev):

    -5.5287   0.5005   2.1485   4.2663

          k =-0.2500-0.2500 0.2500 (   311 PWs)   bands (ev):

    -6.3575   1.7035   4.6970   4.6970

          k = 0.5000-0.5000 1.0000 (   315 PWs)   bands (ev):

    -5.5287   0.5005   2.1485   4.2663

          k =-0.2500-0.2500-0.2500 (   311 PWs)   bands (ev):

    -6.3575   1.7035   4.6970   4.6970

          k = 0.5000-0.5000 0.5000 (   302 PWs)   bands (ev):

    -5.4218  -0.6403   4.3483   4.3483

          k = 0.2500 0.2500-0.2500 (   311 PWs)   bands (ev):

    -6.3575   1.7035   4.6970   4.6970

          k = 1.0000 0.0000 0.5000 (   308 PWs)   bands (ev):

    -4.7852  -0.0517   1.7949   2.1910

          k = 0.2500-0.2500 0.2500 (   311 PWs)   bands (ev):

    -6.3575   1.7035   4.6970   4.6970

          k = 1.0000-0.5000 1.0000 (   311 PWs)   bands (ev):

    -6.1430   1.9396   3.7847   3.7847

          k =-0.2500 0.2500-0.7500 (   311 PWs)   bands (ev):

    -5.1819  -0.0415   2.3125   3.5086

          k = 0.5000 0.0000 0.0000 (   311 PWs)   bands (ev):

    -6.1430   1.9396   3.7847   3.7847

          k =-0.2500-0.2500 0.7500 (   311 PWs)   bands (ev):

    -5.1819  -0.0415   2.3125   3.5086

          k = 0.5000-0.5000 1.5000 (   302 PWs)   bands (ev):

    -5.4218  -0.6403   4.3483   4.3483

          k =-0.2500-0.7500 0.2500 (   311 PWs)   bands (ev):

    -5.1819  -0.0415   2.3125   3.5086

          k = 0.5000-1.0000 1.0000 (   311 PWs)   bands (ev):

    -6.1430   1.9396   3.7847   3.7847

          k =-0.7500-0.2500 0.2500 (   311 PWs)   bands (ev):

    -5.1819  -0.0415   2.3125   3.5086

          k = 0.0000-0.5000 1.0000 (   308 PWs)   bands (ev):

    -4.7852  -0.0517   1.7949   2.1910

          k =-0.2500 0.7500-0.2500 (   311 PWs)   bands (ev):

    -5.1819  -0.0415   2.3125   3.5086

          k = 0.5000 0.5000 0.5000 (   302 PWs)   bands (ev):

    -5.4218  -0.6403   4.3483   4.3483

          k = 0.2500 0.7500 0.2500 (   311 PWs)   bands (ev):

    -5.1819  -0.0415   2.3125   3.5086

          k = 1.0000 0.5000 1.0000 (   311 PWs)   bands (ev):

    -6.1430   1.9396   3.7847   3.7847

          k =-0.2500-0.2500-0.7500 (   311 PWs)   bands (ev):

    -5.1819  -0.0415   2.3125   3.5086

          k = 0.5000-0.5000 0.0000 (   315 PWs)   bands (ev):

    -5.5287   0.5005   2.1485   4.2663

          k = 0.2500 0.2500-0.7500 (   311 PWs)   bands (ev):

    -5.1819  -0.0415   2.3125   3.5086

          k = 1.0000 0.0000 0.0000 (   302 PWs)   bands (ev):

    -4.8217  -0.4470   2.9274   2.9274

          k = 0.2500-0.2500 0.7500 (   311 PWs)   bands (ev):

    -5.1819  -0.0415   2.3125   3.5086

          k = 1.0000-0.5000 1.5000 (   315 PWs)   bands (ev):

    -5.5287   0.5005   2.1485   4.2663

          k =-0.2500 0.2500 0.7500 (   311 PWs)   bands (ev):

    -5.1819  -0.0415   2.3125   3.5086

          k = 0.5000 0.0000 1.5000 (   315 PWs)   bands (ev):

    -5.5287   0.5005   2.1485   4.2663

          k =-0.2500 0.7500 0.2500 (   311 PWs)   bands (ev):

    -5.1819  -0.0415   2.3125   3.5086

          k = 0.5000 0.5000 1.0000 (   315 PWs)   bands (ev):

    -5.5287   0.5005   2.1485   4.2663

          k =-0.2500-0.7500-0.2500 (   311 PWs)   bands (ev):

    -5.1819  -0.0415   2.3125   3.5086

          k = 0.5000-1.0000 0.5000 (   315 PWs)   bands (ev):

    -5.5287   0.5005   2.1485   4.2663

          k = 0.2500-0.7500 0.2500 (   311 PWs)   bands (ev):

    -5.1819  -0.0415   2.3125   3.5086

          k = 1.0000-1.0000 1.0000 (   331 PWs)   bands (ev):

    -6.9797   5.1761   5.1761   5.1761

     highest occupied level (ev):     5.1761

     Writing output data file alas.save

                                                                                

     bravais-lattice index     =            2
     lattice parameter (alat)  =      10.5000  a.u.
     unit-cell volume          =     289.4062 (a.u.)^3
     number of atoms/cell      =            2
     number of atomic types    =            2
     kinetic-energy cut-off    =      16.0000  Ry
     charge density cut-off    =      64.0000  Ry
     convergence threshold     =      1.0E-12
     beta                      =       0.7000
     number of iterations used =            4
     Exchange-correlation      =  SLA  PZ   NOGX NOGC ( 1  1  0  0 0 0)


     celldm(1)=   10.50000  celldm(2)=    0.00000  celldm(3)=    0.00000
     celldm(4)=    0.00000  celldm(5)=    0.00000  celldm(6)=    0.00000

     crystal axes: (cart. coord. in units of alat)
               a(1) = ( -0.5000  0.0000  0.5000 )  
               a(2) = (  0.0000  0.5000  0.5000 )  
               a(3) = ( -0.5000  0.5000  0.0000 )  

     reciprocal axes: (cart. coord. in units 2 pi/alat)
               b(1) = ( -1.0000 -1.0000  1.0000 )  
               b(2) = (  1.0000  1.0000  1.0000 )  
               b(3) = ( -1.0000  1.0000 -1.0000 )  


     Atoms inside the unit cell: 

     Cartesian axes

     site n.  atom      mass           positions (alat units)
        1     Al  26.9800   tau(    1) = (    0.00000    0.00000    0.00000  )
        2     As  74.9200   tau(    2) = (    0.25000    0.25000    0.25000  )

     Computing dynamical matrix for 
                    q = (   0.7500000  -0.2500000   0.7500000 )

      2 Sym.Ops. (no q -> -q+G )


     G cutoff =  178.7306  (   1224 G-vectors)     FFT grid: ( 20, 20, 20)
     number of k points=    40

     PseudoPot. # 1 for Al read from file:
     /home/pietro/trunk/espresso/pseudo/Al.pz-vbc.UPF
     MD5 check sum: 614279c88ff8d45c90147292d03ed420
     Pseudo is Norm-conserving, Zval =  3.0
     Generated by new atomic code, or converted to UPF format
     Using radial grid of  171 points,  2 beta functions with: 
                l(1) =   0
                l(2) =   1

     PseudoPot. # 2 for As read from file:
     /home/pietro/trunk/espresso/pseudo/As.pz-bhs.UPF
     MD5 check sum: 451cd3365afcfc94d28b1934951c34a8
     Pseudo is Norm-conserving, Zval =  5.0
     Generated by new atomic code, or converted to UPF format
     Using radial grid of  525 points,  2 beta functions with: 
                l(1) =   0
                l(2) =   1

     Mode symmetry, C_s (m)     point group:


     Atomic displacements:
     There are   6 irreducible representations

     Representation     1      1 modes -A'  To be done

     Representation     2      1 modes -A'  To be done

     Representation     3      1 modes -A'  To be done

     Representation     4      1 modes -A'  To be done

     Representation     5      1 modes -A''  To be done

     Representation     6      1 modes -A''  To be done



     Alpha used in Ewald sum =   0.7000
     PHONON       :     7.72s CPU         8.08s WALL



     Representation #  1 mode #   1

     Self-consistent Calculation

      iter #   1 total cpu time :     8.2 secs   av.it.:   6.3
      thresh= 1.000E-02 alpha_mix =  0.700 |ddv_scf|^2 =  1.089E-04

      iter #   2 total cpu time :     8.3 secs   av.it.:   8.7
      thresh= 1.044E-03 alpha_mix =  0.700 |ddv_scf|^2 =  2.312E-04

      iter #   3 total cpu time :     8.5 secs   av.it.:   7.8
      thresh= 1.520E-03 alpha_mix =  0.700 |ddv_scf|^2 =  1.033E-06

      iter #   4 total cpu time :     8.6 secs   av.it.:   8.5
      thresh= 1.016E-04 alpha_mix =  0.700 |ddv_scf|^2 =  7.500E-09

      iter #   5 total cpu time :     8.7 secs   av.it.:   8.7
      thresh= 8.660E-06 alpha_mix =  0.700 |ddv_scf|^2 =  6.075E-10

      iter #   6 total cpu time :     8.9 secs   av.it.:   8.6
      thresh= 2.465E-06 alpha_mix =  0.700 |ddv_scf|^2 =  9.885E-12

      iter #   7 total cpu time :     9.0 secs   av.it.:   8.5
      thresh= 3.144E-07 alpha_mix =  0.700 |ddv_scf|^2 =  3.298E-13

     End of self-consistent calculation

     Convergence has been achieved 


     Representation #  2 mode #   2

     Self-consistent Calculation

      iter #   1 total cpu time :     9.1 secs   av.it.:   5.6
      thresh= 1.000E-02 alpha_mix =  0.700 |ddv_scf|^2 =  3.248E-05

      iter #   2 total cpu time :     9.2 secs   av.it.:   8.8
      thresh= 5.699E-04 alpha_mix =  0.700 |ddv_scf|^2 =  6.415E-05

      iter #   3 total cpu time :     9.4 secs   av.it.:   7.8
      thresh= 8.009E-04 alpha_mix =  0.700 |ddv_scf|^2 =  2.654E-07

      iter #   4 total cpu time :     9.5 secs   av.it.:   8.2
      thresh= 5.151E-05 alpha_mix =  0.700 |ddv_scf|^2 =  3.890E-09

      iter #   5 total cpu time :     9.6 secs   av.it.:   8.5
      thresh= 6.237E-06 alpha_mix =  0.700 |ddv_scf|^2 =  2.753E-10

      iter #   6 total cpu time :     9.8 secs   av.it.:   8.7
      thresh= 1.659E-06 alpha_mix =  0.700 |ddv_scf|^2 =  1.660E-11

      iter #   7 total cpu time :     9.9 secs   av.it.:   8.7
      thresh= 4.075E-07 alpha_mix =  0.700 |ddv_scf|^2 =  7.402E-13

     End of self-consistent calculation

     Convergence has been achieved 


     Representation #  3 mode #   3

     Self-consistent Calculation

      iter #   1 total cpu time :    10.0 secs   av.it.:   6.3
      thresh= 1.000E-02 alpha_mix =  0.700 |ddv_scf|^2 =  1.536E-04

      iter #   2 total cpu time :    10.1 secs   av.it.:   8.8
      thresh= 1.240E-03 alpha_mix =  0.700 |ddv_scf|^2 =  3.325E-04

      iter #   3 total cpu time :    10.3 secs   av.it.:   7.8
      thresh= 1.824E-03 alpha_mix =  0.700 |ddv_scf|^2 =  1.125E-06

      iter #   4 total cpu time :    10.4 secs   av.it.:   8.4
      thresh= 1.061E-04 alpha_mix =  0.700 |ddv_scf|^2 =  6.380E-09

      iter #   5 total cpu time :    10.5 secs   av.it.:   8.8
      thresh= 7.987E-06 alpha_mix =  0.700 |ddv_scf|^2 =  5.589E-10

      iter #   6 total cpu time :    10.7 secs   av.it.:   8.5
      thresh= 2.364E-06 alpha_mix =  0.700 |ddv_scf|^2 =  1.261E-11

      iter #   7 total cpu time :    10.8 secs   av.it.:   8.4
      thresh= 3.551E-07 alpha_mix =  0.700 |ddv_scf|^2 =  3.339E-13

     End of self-consistent calculation

     Convergence has been achieved 


     Representation #  4 mode #   4

     Self-consistent Calculation

      iter #   1 total cpu time :    10.9 secs   av.it.:   5.3
      thresh= 1.000E-02 alpha_mix =  0.700 |ddv_scf|^2 =  9.537E-06

      iter #   2 total cpu time :    11.0 secs   av.it.:   8.9
      thresh= 3.088E-04 alpha_mix =  0.700 |ddv_scf|^2 =  1.110E-05

      iter #   3 total cpu time :    11.2 secs   av.it.:   8.2
      thresh= 3.331E-04 alpha_mix =  0.700 |ddv_scf|^2 =  3.918E-07

      iter #   4 total cpu time :    11.3 secs   av.it.:   8.2
      thresh= 6.260E-05 alpha_mix =  0.700 |ddv_scf|^2 =  2.971E-09

      iter #   5 total cpu time :    11.4 secs   av.it.:   8.6
      thresh= 5.451E-06 alpha_mix =  0.700 |ddv_scf|^2 =  2.120E-10

      iter #   6 total cpu time :    11.6 secs   av.it.:   8.6
      thresh= 1.456E-06 alpha_mix =  0.700 |ddv_scf|^2 =  1.066E-11

      iter #   7 total cpu time :    11.7 secs   av.it.:   8.6
      thresh= 3.265E-07 alpha_mix =  0.700 |ddv_scf|^2 =  2.689E-13

     End of self-consistent calculation

     Convergence has been achieved 


     Representation #  5 mode #   5

     Self-consistent Calculation

      iter #   1 total cpu time :    11.8 secs   av.it.:   4.8
      thresh= 1.000E-02 alpha_mix =  0.700 |ddv_scf|^2 =  1.375E-06

      iter #   2 total cpu time :    11.9 secs   av.it.:   8.4
      thresh= 1.172E-04 alpha_mix =  0.700 |ddv_scf|^2 =  1.986E-07

      iter #   3 total cpu time :    12.1 secs   av.it.:   8.2
      thresh= 4.457E-05 alpha_mix =  0.700 |ddv_scf|^2 =  6.728E-10

      iter #   4 total cpu time :    12.2 secs   av.it.:   7.8
      thresh= 2.594E-06 alpha_mix =  0.700 |ddv_scf|^2 =  1.803E-11

      iter #   5 total cpu time :    12.3 secs   av.it.:   7.5
      thresh= 4.247E-07 alpha_mix =  0.700 |ddv_scf|^2 =  6.358E-15

     End of self-consistent calculation

     Convergence has been achieved 


     Representation #  6 mode #   6

     Self-consistent Calculation

      iter #   1 total cpu time :    12.4 secs   av.it.:   5.8
      thresh= 1.000E-02 alpha_mix =  0.700 |ddv_scf|^2 =  1.022E-05

      iter #   2 total cpu time :    12.5 secs   av.it.:   8.3
      thresh= 3.196E-04 alpha_mix =  0.700 |ddv_scf|^2 =  1.636E-06

      iter #   3 total cpu time :    12.7 secs   av.it.:   8.2
      thresh= 1.279E-04 alpha_mix =  0.700 |ddv_scf|^2 =  3.973E-10

      iter #   4 total cpu time :    12.8 secs   av.it.:   8.0
      thresh= 1.993E-06 alpha_mix =  0.700 |ddv_scf|^2 =  1.430E-11

      iter #   5 total cpu time :    12.9 secs   av.it.:   8.2
      thresh= 3.782E-07 alpha_mix =  0.700 |ddv_scf|^2 =  5.670E-14

     End of self-consistent calculation

     Convergence has been achieved 

     Number of q in the star =   12
     List of q in the star:
          1   0.750000000  -0.250000000   0.750000000
          2  -0.750000000  -0.250000000  -0.750000000
          3   0.250000000  -0.750000000   0.750000000
          4  -0.750000000   0.250000000   0.750000000
          5   0.750000000   0.250000000  -0.750000000
          6   0.750000000   0.750000000  -0.250000000
          7  -0.750000000  -0.750000000  -0.250000000
          8  -0.750000000   0.750000000   0.250000000
          9  -0.250000000   0.750000000   0.750000000
         10   0.250000000   0.750000000  -0.750000000
         11  -0.250000000  -0.750000000  -0.750000000
         12   0.750000000  -0.750000000   0.250000000
     In addition there is the -q list: 
          1  -0.750000000   0.250000000  -0.750000000
          2   0.750000000   0.250000000   0.750000000
          3  -0.250000000   0.750000000  -0.750000000
          4   0.750000000  -0.250000000  -0.750000000
          5  -0.750000000  -0.250000000   0.750000000
          6  -0.750000000  -0.750000000   0.250000000
          7   0.750000000   0.750000000   0.250000000
          8   0.750000000  -0.750000000  -0.250000000
          9   0.250000000  -0.750000000  -0.750000000
         10  -0.250000000  -0.750000000   0.750000000
         11   0.250000000   0.750000000   0.750000000
         12  -0.750000000   0.750000000  -0.250000000

     Diagonalizing the dynamical matrix

     q = (    0.750000000  -0.250000000   0.750000000 ) 

 **************************************************************************
     freq (    1) =       2.620953 [THz] =      87.425583 [cm-1]
     freq (    2) =       3.804508 [THz] =     126.904721 [cm-1]
     freq (    3) =       5.902914 [THz] =     196.900020 [cm-1]
     freq (    4) =      10.569016 [THz] =     352.544410 [cm-1]
     freq (    5) =      10.588707 [THz] =     353.201259 [cm-1]
     freq (    6) =      11.478095 [THz] =     382.868049 [cm-1]
 **************************************************************************

     Mode symmetry, C_s (m)     point group:

     freq (  1 -  1) =         87.4  [cm-1]   --> A''                
     freq (  2 -  2) =        126.9  [cm-1]   --> A'                 
     freq (  3 -  3) =        196.9  [cm-1]   --> A'                 
     freq (  4 -  4) =        352.5  [cm-1]   --> A''                
     freq (  5 -  5) =        353.2  [cm-1]   --> A'                 
     freq (  6 -  6) =        382.9  [cm-1]   --> A'                 

     Calculation of q =    0.5000000   0.0000000   0.5000000

     Parallelization info
     --------------------
     sticks:   dense  smooth     PW     G-vecs:    dense   smooth      PW
     Min         120     120     42                 1221     1221     267
     Max         121     121     43                 1224     1224     270
     Sum         241     241     85                 2445     2445     537



     bravais-lattice index     =            2
     lattice parameter (alat)  =      10.5000  a.u.
     unit-cell volume          =     289.4062 (a.u.)^3
     number of atoms/cell      =            2
     number of atomic types    =            2
     number of electrons       =         8.00
     number of Kohn-Sham states=            4
     kinetic-energy cutoff     =      16.0000  Ry
[...]
     number of atoms/cell      =            2
     number of atomic types    =            2
     number of electrons       =         8.00
     number of Kohn-Sham states=            4
     kinetic-energy cutoff     =      16.0000  Ry
     charge density cutoff     =      64.0000  Ry
     Exchange-correlation      =  SLA  PZ   NOGX NOGC ( 1  1  0  0 0 0)

     celldm(1)=  10.500000  celldm(2)=   0.000000  celldm(3)=   0.000000
     celldm(4)=   0.000000  celldm(5)=   0.000000  celldm(6)=   0.000000

     crystal axes: (cart. coord. in units of alat)
               a(1) = (  -0.500000   0.000000   0.500000 )  
               a(2) = (   0.000000   0.500000   0.500000 )  
               a(3) = (  -0.500000   0.500000   0.000000 )  

     reciprocal axes: (cart. coord. in units 2 pi/alat)
               b(1) = ( -1.000000 -1.000000  1.000000 )  
               b(2) = (  1.000000  1.000000  1.000000 )  
               b(3) = ( -1.000000  1.000000 -1.000000 )  


     PseudoPot. # 1 for Al read from file:
     /home/pietro/trunk/espresso/pseudo/Al.pz-vbc.UPF
     MD5 check sum: 614279c88ff8d45c90147292d03ed420
     Pseudo is Norm-conserving, Zval =  3.0
     Generated by new atomic code, or converted to UPF format
     Using radial grid of  171 points,  2 beta functions with: 
                l(1) =   0
                l(2) =   1

     PseudoPot. # 2 for As read from file:
     /home/pietro/trunk/espresso/pseudo/As.pz-bhs.UPF
     MD5 check sum: 451cd3365afcfc94d28b1934951c34a8
     Pseudo is Norm-conserving, Zval =  5.0
     Generated by new atomic code, or converted to UPF format
     Using radial grid of  525 points,  2 beta functions with: 
                l(1) =   0
                l(2) =   1

     atomic species   valence    mass     pseudopotential
        Al             3.00    26.98000     Al( 1.00)
        As             5.00    74.92000     As( 1.00)

     24 Sym. Ops. (no inversion) found



   Cartesian axes

     site n.     atom                  positions (alat units)
         1           Al  tau(   1) = (   0.0000000   0.0000000   0.0000000  )
         2           As  tau(   2) = (   0.2500000   0.2500000   0.2500000  )

     number of k points=    16
                       cart. coord. in units 2pi/alat
        k(    1) = (   0.2500000   0.2500000   0.2500000), wk =   0.2500000
        k(    2) = (  -0.2500000  -0.7500000   0.2500000), wk =   0.0000000
        k(    3) = (   0.2500000   0.2500000   0.7500000), wk =   0.2500000
        k(    4) = (  -0.2500000  -0.7500000   0.7500000), wk =   0.0000000
        k(    5) = (  -0.2500000  -0.2500000  -0.2500000), wk =   0.2500000
        k(    6) = (  -0.7500000  -1.2500000  -0.2500000), wk =   0.0000000
        k(    7) = (  -0.7500000  -0.2500000   0.2500000), wk =   0.2500000
        k(    8) = (  -1.2500000  -1.2500000   0.2500000), wk =   0.0000000
        k(    9) = (  -0.2500000  -0.2500000   0.7500000), wk =   0.2500000
        k(   10) = (  -0.7500000  -1.2500000   0.7500000), wk =   0.0000000
        k(   11) = (  -0.2500000  -0.2500000  -0.7500000), wk =   0.2500000
        k(   12) = (  -0.7500000  -1.2500000  -0.7500000), wk =   0.0000000
        k(   13) = (   0.2500000   0.2500000  -0.7500000), wk =   0.2500000
        k(   14) = (  -0.2500000  -0.7500000  -0.7500000), wk =   0.0000000
        k(   15) = (   0.7500000  -0.2500000   0.2500000), wk =   0.2500000
        k(   16) = (   0.2500000  -1.2500000   0.2500000), wk =   0.0000000

     Dense  grid:     2445 G-vectors     FFT dimensions: (  20,  20,  20)

     Estimated max dynamical RAM per process >       0.51Mb

     Estimated total allocated dynamical RAM >       1.02Mb

     The potential is recalculated from file :
     /home/pietro/trunk/espresso/tempdir/_ph0/alas.save/charge-density.dat

     Starting wfc are    8 atomic wfcs

     Band Structure Calculation
     Davidson diagonalization with overlap

     ethr =  1.25E-10,  avg # of iterations = 11.8

     total cpu time spent up to now is        1.7 secs

     End of band structure calculation

          k = 0.2500 0.2500 0.2500 (   311 PWs)   bands (ev):

    -6.3575   1.7035   4.6970   4.6970

          k =-0.2500-0.7500 0.2500 (   311 PWs)   bands (ev):

    -5.1819  -0.0415   2.3125   3.5086

          k = 0.2500 0.2500 0.7500 (   311 PWs)   bands (ev):

    -5.1819  -0.0415   2.3125   3.5086

          k =-0.2500-0.7500 0.7500 (   311 PWs)   bands (ev):

    -5.1819  -0.0415   2.3125   3.5086

          k =-0.2500-0.2500-0.2500 (   311 PWs)   bands (ev):

    -6.3575   1.7035   4.6970   4.6970

          k =-0.7500-1.2500-0.2500 (   311 PWs)   bands (ev):

    -5.1819  -0.0415   2.3125   3.5086

          k =-0.7500-0.2500 0.2500 (   311 PWs)   bands (ev):

    -5.1819  -0.0415   2.3125   3.5086

          k =-1.2500-1.2500 0.2500 (   311 PWs)   bands (ev):

    -5.1819  -0.0415   2.3125   3.5086

          k =-0.2500-0.2500 0.7500 (   311 PWs)   bands (ev):

    -5.1819  -0.0415   2.3125   3.5086

          k =-0.7500-1.2500 0.7500 (   311 PWs)   bands (ev):

    -6.3575   1.7035   4.6970   4.6970

          k =-0.2500-0.2500-0.7500 (   311 PWs)   bands (ev):

    -5.1819  -0.0415   2.3125   3.5086

          k =-0.7500-1.2500-0.7500 (   311 PWs)   bands (ev):

    -6.3575   1.7035   4.6970   4.6970

          k = 0.2500 0.2500-0.7500 (   311 PWs)   bands (ev):

    -5.1819  -0.0415   2.3125   3.5086

          k =-0.2500-0.7500-0.7500 (   311 PWs)   bands (ev):

    -5.1819  -0.0415   2.3125   3.5086

          k = 0.7500-0.2500 0.2500 (   311 PWs)   bands (ev):

    -5.1819  -0.0415   2.3125   3.5086

          k = 0.2500-1.2500 0.2500 (   311 PWs)   bands (ev):

    -5.1819  -0.0415   2.3125   3.5086

     highest occupied level (ev):     4.6970

     Writing output data file alas.save

                                                                                

     bravais-lattice index     =            2
     lattice parameter (alat)  =      10.5000  a.u.
     unit-cell volume          =     289.4062 (a.u.)^3
     number of atoms/cell      =            2
     number of atomic types    =            2
     kinetic-energy cut-off    =      16.0000  Ry
     charge density cut-off    =      64.0000  Ry
     convergence threshold     =      1.0E-12
     beta                      =       0.7000
     number of iterations used =            4
     Exchange-correlation      =  SLA  PZ   NOGX NOGC ( 1  1  0  0 0 0)


     celldm(1)=   10.50000  celldm(2)=    0.00000  celldm(3)=    0.00000
     celldm(4)=    0.00000  celldm(5)=    0.00000  celldm(6)=    0.00000

     crystal axes: (cart. coord. in units of alat)
               a(1) = ( -0.5000  0.0000  0.5000 )  
               a(2) = (  0.0000  0.5000  0.5000 )  
               a(3) = ( -0.5000  0.5000  0.0000 )  

     reciprocal axes: (cart. coord. in units 2 pi/alat)
               b(1) = ( -1.0000 -1.0000  1.0000 )  
               b(2) = (  1.0000  1.0000  1.0000 )  
               b(3) = ( -1.0000  1.0000 -1.0000 )  


     Atoms inside the unit cell: 

     Cartesian axes

     site n.  atom      mass           positions (alat units)
        1     Al  26.9800   tau(    1) = (    0.00000    0.00000    0.00000  )
        2     As  74.9200   tau(    2) = (    0.25000    0.25000    0.25000  )

     Computing dynamical matrix for 
                    q = (  -0.5000000  -1.0000000   0.0000000 )

      4 Sym.Ops. (no q -> -q+G )


     G cutoff =  178.7306  (   1224 G-vectors)     FFT grid: ( 20, 20, 20)
     number of k points=    16

     PseudoPot. # 1 for Al read from file:
     /home/pietro/trunk/espresso/pseudo/Al.pz-vbc.UPF
     MD5 check sum: 614279c88ff8d45c90147292d03ed420
     Pseudo is Norm-conserving, Zval =  3.0
     Generated by new atomic code, or converted to UPF format
     Using radial grid of  171 points,  2 beta functions with: 
                l(1) =   0
                l(2) =   1

     PseudoPot. # 2 for As read from file:
     /home/pietro/trunk/espresso/pseudo/As.pz-bhs.UPF
     MD5 check sum: 451cd3365afcfc94d28b1934951c34a8
     Pseudo is Norm-conserving, Zval =  5.0
     Generated by new atomic code, or converted to UPF format
     Using radial grid of  525 points,  2 beta functions with: 
                l(1) =   0
                l(2) =   1

     Mode symmetry, S_4 (-4)    point group:


     Atomic displacements:
     There are   6 irreducible representations

     Representation     1      1 modes -A    W_1  To be done

     Representation     2      1 modes -B    W_3  To be done

     Representation     3      1 modes -B    W_3  To be done

     Representation     4      1 modes -E    W_4  To be done

     Representation     5      1 modes -E*   W_2  To be done

     Representation     6      1 modes -E*   W_2  To be done



     Alpha used in Ewald sum =   0.7000
     PHONON       :    18.29s CPU        19.05s WALL



     Representation #  1 mode #   1

     Self-consistent Calculation

      iter #   1 total cpu time :    19.1 secs   av.it.:   6.2
      thresh= 1.000E-02 alpha_mix =  0.700 |ddv_scf|^2 =  6.988E-05

      iter #   2 total cpu time :    19.1 secs   av.it.:   9.2
      thresh= 8.359E-04 alpha_mix =  0.700 |ddv_scf|^2 =  7.443E-05

      iter #   3 total cpu time :    19.2 secs   av.it.:   8.2
      thresh= 8.627E-04 alpha_mix =  0.700 |ddv_scf|^2 =  7.840E-10

      iter #   4 total cpu time :    19.3 secs   av.it.:   9.0
      thresh= 2.800E-06 alpha_mix =  0.700 |ddv_scf|^2 =  7.993E-11

      iter #   5 total cpu time :    19.3 secs   av.it.:   8.2
      thresh= 8.940E-07 alpha_mix =  0.700 |ddv_scf|^2 =  1.766E-13

     End of self-consistent calculation

     Convergence has been achieved 


     Representation #  2 mode #   2

     Self-consistent Calculation

      iter #   1 total cpu time :    19.3 secs   av.it.:   6.2
      thresh= 1.000E-02 alpha_mix =  0.700 |ddv_scf|^2 =  5.006E-05

      iter #   2 total cpu time :    19.4 secs   av.it.:   9.0
      thresh= 7.075E-04 alpha_mix =  0.700 |ddv_scf|^2 =  3.096E-05

      iter #   3 total cpu time :    19.5 secs   av.it.:   8.2
      thresh= 5.564E-04 alpha_mix =  0.700 |ddv_scf|^2 =  5.233E-10

      iter #   4 total cpu time :    19.5 secs   av.it.:   8.5
      thresh= 2.288E-06 alpha_mix =  0.700 |ddv_scf|^2 =  4.849E-11

      iter #   5 total cpu time :    19.6 secs   av.it.:   8.2
      thresh= 6.963E-07 alpha_mix =  0.700 |ddv_scf|^2 =  9.552E-14

     End of self-consistent calculation

     Convergence has been achieved 


     Representation #  3 mode #   3

     Self-consistent Calculation

      iter #   1 total cpu time :    19.6 secs   av.it.:   5.5
      thresh= 1.000E-02 alpha_mix =  0.700 |ddv_scf|^2 =  5.893E-06

      iter #   2 total cpu time :    19.7 secs   av.it.:   9.0
      thresh= 2.427E-04 alpha_mix =  0.700 |ddv_scf|^2 =  3.651E-06

      iter #   3 total cpu time :    19.7 secs   av.it.:   8.2
      thresh= 1.911E-04 alpha_mix =  0.700 |ddv_scf|^2 =  8.514E-10

      iter #   4 total cpu time :    19.8 secs   av.it.:   8.0
      thresh= 2.918E-06 alpha_mix =  0.700 |ddv_scf|^2 =  5.623E-11

      iter #   5 total cpu time :    19.8 secs   av.it.:   8.0
      thresh= 7.499E-07 alpha_mix =  0.700 |ddv_scf|^2 =  1.129E-14

     End of self-consistent calculation

     Convergence has been achieved 


     Representation #  4 mode #   4

     Self-consistent Calculation

      iter #   1 total cpu time :    19.8 secs   av.it.:   5.5
      thresh= 1.000E-02 alpha_mix =  0.700 |ddv_scf|^2 =  8.942E-06

      iter #   2 total cpu time :    19.9 secs   av.it.:   8.8
      thresh= 2.990E-04 alpha_mix =  0.700 |ddv_scf|^2 =  6.128E-06

      iter #   3 total cpu time :    19.9 secs   av.it.:   8.2
      thresh= 2.475E-04 alpha_mix =  0.700 |ddv_scf|^2 =  6.917E-09

      iter #   4 total cpu time :    20.0 secs   av.it.:   8.2
      thresh= 8.317E-06 alpha_mix =  0.700 |ddv_scf|^2 =  7.940E-11

      iter #   5 total cpu time :    20.0 secs   av.it.:   8.0
      thresh= 8.910E-07 alpha_mix =  0.700 |ddv_scf|^2 =  1.147E-13

     End of self-consistent calculation

     Convergence has been achieved 


     Representation #  5 mode #   5

     Self-consistent Calculation

      iter #   1 total cpu time :    20.1 secs   av.it.:   5.8
      thresh= 1.000E-02 alpha_mix =  0.700 |ddv_scf|^2 =  7.730E-06

      iter #   2 total cpu time :    20.1 secs   av.it.:   9.1
      thresh= 2.780E-04 alpha_mix =  0.700 |ddv_scf|^2 =  3.394E-06

      iter #   3 total cpu time :    20.2 secs   av.it.:   8.2
      thresh= 1.842E-04 alpha_mix =  0.700 |ddv_scf|^2 =  9.873E-10

      iter #   4 total cpu time :    20.2 secs   av.it.:   8.2
      thresh= 3.142E-06 alpha_mix =  0.700 |ddv_scf|^2 =  1.676E-11

      iter #   5 total cpu time :    20.3 secs   av.it.:   8.2
      thresh= 4.094E-07 alpha_mix =  0.700 |ddv_scf|^2 =  4.641E-14

     End of self-consistent calculation

     Convergence has been achieved 


     Representation #  6 mode #   6

     Self-consistent Calculation

      iter #   1 total cpu time :    20.3 secs   av.it.:   6.2
      thresh= 1.000E-02 alpha_mix =  0.700 |ddv_scf|^2 =  2.824E-05

      iter #   2 total cpu time :    20.4 secs   av.it.:   9.1
      thresh= 5.314E-04 alpha_mix =  0.700 |ddv_scf|^2 =  1.352E-05

      iter #   3 total cpu time :    20.5 secs   av.it.:   8.2
      thresh= 3.676E-04 alpha_mix =  0.700 |ddv_scf|^2 =  1.559E-09

      iter #   4 total cpu time :    20.5 secs   av.it.:   8.8
      thresh= 3.948E-06 alpha_mix =  0.700 |ddv_scf|^2 =  5.682E-11

      iter #   5 total cpu time :    20.6 secs   av.it.:   8.8
      thresh= 7.538E-07 alpha_mix =  0.700 |ddv_scf|^2 =  1.157E-13

     End of self-consistent calculation

     Convergence has been achieved 

     Number of q in the star =    6
     List of q in the star:
          1  -0.500000000  -1.000000000   0.000000000
          2   0.000000000   1.000000000  -0.500000000
          3   0.000000000   1.000000000   0.500000000
          4   0.500000000   1.000000000   0.000000000
          5   0.000000000  -0.500000000  -1.000000000
          6   0.000000000   0.500000000  -1.000000000

     Diagonalizing the dynamical matrix

     q = (   -0.500000000  -1.000000000   0.000000000 ) 

 **************************************************************************
     freq (    1) =       3.746981 [THz] =     124.985828 [cm-1]
     freq (    2) =       4.016757 [THz] =     133.984596 [cm-1]
     freq (    3) =       5.965763 [THz] =     198.996447 [cm-1]
     freq (    4) =      10.537229 [THz] =     351.484138 [cm-1]
     freq (    5) =      10.644734 [THz] =     355.070104 [cm-1]
     freq (    6) =      10.758868 [THz] =     358.877202 [cm-1]
 **************************************************************************

     Mode symmetry, S_4 (-4)    point group:

     freq (  1 -  1) =        125.0  [cm-1]   --> B    W_3           
     freq (  2 -  2) =        134.0  [cm-1]   --> E*   W_2           
     freq (  3 -  3) =        199.0  [cm-1]   --> A    W_1           
     freq (  4 -  4) =        351.5  [cm-1]   --> B    W_3           
     freq (  5 -  5) =        355.1  [cm-1]   --> E    W_4           
     freq (  6 -  6) =        358.9  [cm-1]   --> E*   W_2           

     init_run     :      0.12s CPU      0.12s WALL (       7 calls)
     electrons    :      1.26s CPU      1.31s WALL (       7 calls)

     Called by init_run:
     wfcinit      :      0.00s CPU      0.00s WALL (       7 calls)
     potinit      :      0.01s CPU      0.01s WALL (       7 calls)

     Called by electrons:
     c_bands      :      1.26s CPU      1.31s WALL (       7 calls)
     v_of_rho     :      0.00s CPU      0.00s WALL (       8 calls)

     Called by c_bands:
     init_us_2    :      0.12s CPU      0.13s WALL (    3456 calls)
     cegterg      :      1.05s CPU      1.11s WALL (     156 calls)

     Called by sum_band:

     Called by *egterg:
     h_psi        :     13.51s CPU     14.05s WALL (   29315 calls)
     g_psi        :      0.01s CPU      0.01s WALL (    1782 calls)
     cdiaghg      :      0.09s CPU      0.08s WALL (    1938 calls)

     Called by h_psi:
     h_psi:pot    :     13.46s CPU     13.99s WALL (   29315 calls)
     h_psi:calbec :      0.32s CPU      0.34s WALL (   29315 calls)
     vloc_psi     :     12.89s CPU     13.36s WALL (   29315 calls)
     add_vuspsi   :      0.18s CPU      0.23s WALL (   29315 calls)

     General routines
     calbec       :      0.61s CPU      0.61s WALL (   59262 calls)
     fft          :      0.11s CPU      0.09s WALL (     887 calls)
     ffts         :      0.05s CPU      0.07s WALL (     720 calls)
     fftw         :     14.72s CPU     15.39s WALL (  256902 calls)
     davcio       :      0.09s CPU      0.13s WALL (   16071 calls)

     Parallel routines
     fft_scatter  :      1.58s CPU      1.70s WALL (  258509 calls)

     PHONON       :    19.76s CPU        20.56s WALL

     INITIALIZATION: 
     phq_setup    :      0.03s CPU      0.02s WALL (       8 calls)
     phq_init     :      0.17s CPU      0.19s WALL (       8 calls)

     phq_init     :      0.17s CPU      0.19s WALL (       8 calls)
     init_vloc    :      0.00s CPU      0.01s WALL (       8 calls)
     init_us_1    :      0.06s CPU      0.06s WALL (       8 calls)

     DYNAMICAL MATRIX:
     dynmat0      :      0.06s CPU      0.07s WALL (       8 calls)
     phqscf       :     17.36s CPU     18.11s WALL (       8 calls)
     dynmatrix    :      0.02s CPU      0.01s WALL (       8 calls)

     phqscf       :     17.36s CPU     18.11s WALL (       8 calls)
     solve_linter :     17.26s CPU     17.99s WALL (      38 calls)
     drhodv       :      0.05s CPU      0.07s WALL (      38 calls)

     dynmat0      :      0.06s CPU      0.07s WALL (       8 calls)
     dynmat_us    :      0.06s CPU      0.05s WALL (       8 calls)
     d2ionq       :      0.00s CPU      0.01s WALL (       8 calls)

     dynmat_us    :      0.06s CPU      0.05s WALL (       8 calls)

     phqscf       :     17.36s CPU     18.11s WALL (       8 calls)
     solve_linter :     17.26s CPU     17.99s WALL (      38 calls)

     solve_linter :     17.26s CPU     17.99s WALL (      38 calls)
     dvqpsi_us    :      0.29s CPU      0.32s WALL (     492 calls)
     ortho        :      0.03s CPU      0.04s WALL (    2935 calls)
     cgsolve      :     13.52s CPU     14.02s WALL (    2935 calls)
     incdrhoscf   :      1.47s CPU      1.52s WALL (    2929 calls)
     vpsifft      :      1.19s CPU      1.27s WALL (    2419 calls)
     dv_of_drho   :      0.11s CPU      0.09s WALL (     285 calls)
     mix_pot      :      0.06s CPU      0.08s WALL (     228 calls)
     psymdvscf    :      0.45s CPU      0.47s WALL (     223 calls)

     dvqpsi_us    :      0.29s CPU      0.32s WALL (     492 calls)
     dvqpsi_us_on :      0.02s CPU      0.01s WALL (     492 calls)

     cgsolve      :     13.52s CPU     14.02s WALL (    2935 calls)
     ch_psi       :     13.24s CPU     13.74s WALL (   27221 calls)

     ch_psi       :     13.24s CPU     13.74s WALL (   27221 calls)
     last         :      0.64s CPU      0.65s WALL (   27221 calls)

     add_vuspsi   :      0.18s CPU      0.23s WALL (   29315 calls)

     incdrhoscf   :      1.47s CPU      1.52s WALL (    2929 calls)


      General routines
     calbec       :      0.61s CPU      0.61s WALL (   59262 calls)
     fft          :      0.11s CPU      0.09s WALL (     887 calls)
     ffts         :      0.05s CPU      0.07s WALL (     720 calls)
     fftw         :     14.72s CPU     15.39s WALL (  256902 calls)
     davcio       :      0.09s CPU      0.13s WALL (   16071 calls)
     write_rec    :      0.21s CPU      0.24s WALL (     266 calls)


     PHONON       :    19.76s CPU        20.56s WALL


   This run was terminated on:  10:38:37  23Sep2016            

=------------------------------------------------------------------------------=
   JOB DONE.
=------------------------------------------------------------------------------=
