
     Program POST-PROC v.4.1CVS starts ...
     Today is  4Jun2009 at 18: 4:18 

     Parallel version (MPI)

     Number of processors in use:       1
     file Ni_PBE_TM_2pj.UPF: wavefunction(s)  3S 3P 3D renormalized
     file Ni_PBE_TM_2pj.UPF: wavefunction(s)  3S 3P 3D renormalized

     Planes per process (thick) : nr3 = 54 npp =  54 ncplane = 2916

     Proc/  planes cols     G    planes cols    G      columns  G
     Pool       (dense grid)       (smooth grid)      (wavefct grid)
       1     54   1151    19477   54   1151    19477    331     3009

 k-points : nkstot= 16
 -------------- Crystal Structure ------------ 
 celldm(1:6)
    9.67155000    0.00000000    0.00000000
    0.83333333    0.00000000    0.00000000
 direct lattice vectors
    0.28867513    0.00000000   -0.28867513
   -0.16666667    0.33333333   -0.16666667
    0.94280904    0.94280904    0.94280904
 reciprocal lattice vectors
    1.73205081    0.00000000   -1.73205081
   -1.00000000    2.00000000   -1.00000000
    0.35355339    0.35355339    0.35355339
 nks= 16  nkstot= 16
  ----k-point list [units 2*pi/celldm(1)], weight---------
     1    0.00000000    0.00000000    0.00000000    0.12500000
     2   -0.86602540   -0.50000000    0.17677670    0.12500000
     3    0.00000000    1.00000000    0.17677670    0.12500000
     4   -0.86602540    0.50000000    0.35355339    0.12500000
     5    0.86602540   -0.50000000    0.17677670    0.12500000
     6    0.00000000   -1.00000000    0.35355339    0.12500000
     7    0.86602540    0.50000000    0.35355339    0.12500000
     8    0.00000000    0.00000000    0.53033009    0.12500000
     9    0.00000000    0.00000000    0.00000000    0.12500000
    10   -0.86602540   -0.50000000    0.17677670    0.12500000
    11    0.00000000    1.00000000    0.17677670    0.12500000
    12   -0.86602540    0.50000000    0.35355339    0.12500000
    13    0.86602540   -0.50000000    0.17677670    0.12500000
    14    0.00000000   -1.00000000    0.35355339    0.12500000
    15    0.86602540    0.50000000    0.35355339    0.12500000
    16    0.00000000    0.00000000    0.53033009    0.12500000
 -------------------------------------------------
 --- Polarisation and k vector [cartesian coordinates]----
xepsilon(:)= 0.50000000 -.86602540 0.00000000
xkvec(:)= 0.50000000 0.28867513 0.81649658
 xmesh= 1195
 warning, r_paw( 0  ) set to  1.25
 warning, r_paw( 1  ) set to  1.25
 warning, r_paw( 0  ) set to  1.25
 warning, r_paw( 1  ) set to  1.25

 ==========================================================

>> Fermi level from input (Ryd)=    1.01439527
 Calculation Quadrupole matrix element
 There are  2  projectors/channel
 xang_mom= 2  xiabs= 1
 XANES quadrupole matrix element proj 1 :  0.0008293845067865573
 XANES quadrupole matrix element proj 2 :  0.001056835949947953
  HUBBARD L FOR TYPE Ni IS  2
  HUBBARD L FOR TYPE Ni IS  2
  MAXIMUM HUBBARD L IS  2

 Starting k-point :  1
 total cpu time spent up to now is      3.78 secs
 Atomic wfc used for LDA+U Projector are NOT orthogonalized
 norm initial vector= 0.00015959611684532884
 Estimated error at iter  50  is  1.0101508651927564
 Estimated error at iter  100  is  0.03626200158097758
 CONVERGED at iter  150  with error= 2.71252755274916E-13

 Starting k-point :  2
 total cpu time spent up to now is      7.58 secs
 Atomic wfc used for LDA+U Projector are NOT orthogonalized
 norm initial vector= 0.00015957055888284595
 Estimated error at iter  50  is  1.0098417655453444
 Estimated error at iter  100  is  0.0010395261047200606
 CONVERGED at iter  150  with error= 3.929145721897265E-17

 Starting k-point :  3
 total cpu time spent up to now is     11.39 secs
 Atomic wfc used for LDA+U Projector are NOT orthogonalized
 norm initial vector= 0.00015961956852939045
 Estimated error at iter  50  is  1.0097202723374838
 Estimated error at iter  100  is  0.22421945301535987
 Estimated error at iter  150  is  0.04221634148891608
 CONVERGED at iter  200  with error= 0.00015366037362192289

 Starting k-point :  4
 total cpu time spent up to now is     16.46 secs
 Atomic wfc used for LDA+U Projector are NOT orthogonalized
 norm initial vector= 0.0001595900273358909
 Estimated error at iter  50  is  1.0097226182904395
 Estimated error at iter  100  is  0.2637607540813619
 Estimated error at iter  150  is  0.011434438497495205
 Estimated error at iter  200  is  0.0011223854369560925
 CONVERGED at iter  250  with error= 0.00009230754300220467

 Starting k-point :  5
 total cpu time spent up to now is     22.94 secs
 Atomic wfc used for LDA+U Projector are NOT orthogonalized
 norm initial vector= 0.00015961956852939002
 Estimated error at iter  50  is  1.00972027233748
 Estimated error at iter  100  is  0.22417462339781516
 Estimated error at iter  150  is  0.04213948941825162
 CONVERGED at iter  200  with error= 0.00016405144007869215

 Starting k-point :  6
 total cpu time spent up to now is     28.00 secs
 Atomic wfc used for LDA+U Projector are NOT orthogonalized
 norm initial vector= 0.00015959002733589075
 Estimated error at iter  50  is  1.0097226182904406
 Estimated error at iter  100  is  0.263887358281475
 Estimated error at iter  150  is  0.011295128265281604
 CONVERGED at iter  200  with error= 0.0008402739602706723

 Starting k-point :  7
 total cpu time spent up to now is     33.07 secs
 Atomic wfc used for LDA+U Projector are NOT orthogonalized
 norm initial vector= 0.00015955058300974712
 Estimated error at iter  50  is  1.0099913969590357
 Estimated error at iter  100  is  0.01983356011335536
 CONVERGED at iter  150  with error= 9.23487488857569E-15

 Starting k-point :  8
 total cpu time spent up to now is     36.87 secs
 Atomic wfc used for LDA+U Projector are NOT orthogonalized
 norm initial vector= 0.00015962985036747517
 Estimated error at iter  50  is  1.0099508386483425
 Estimated error at iter  100  is  0.0025654546335651253
 CONVERGED at iter  150  with error= 3.128899827072938E-16

 Starting k-point :  9
 total cpu time spent up to now is     40.65 secs
 Atomic wfc used for LDA+U Projector are NOT orthogonalized
 norm initial vector= 0.00015959611684532884
 Estimated error at iter  50  is  1.0135694940363291
 Estimated error at iter  100  is  0.00344848208364424
 CONVERGED at iter  150  with error= 2.643934386660317E-13

 Starting k-point :  10
 total cpu time spent up to now is     44.46 secs
 Atomic wfc used for LDA+U Projector are NOT orthogonalized
 norm initial vector= 0.00015957055888284595
 Estimated error at iter  50  is  1.0124019578496553
 CONVERGED at iter  100  with error= 0.0008988130953503473

 Starting k-point :  11
 total cpu time spent up to now is     46.99 secs
 Atomic wfc used for LDA+U Projector are NOT orthogonalized
 norm initial vector= 0.00015961956852939045
 Estimated error at iter  50  is  1.0127438677588358
 Estimated error at iter  100  is  0.13419390658413388
 Estimated error at iter  150  is  0.009599749314625783
 CONVERGED at iter  200  with error= 0.00028815203862404967

 Starting k-point :  12
 total cpu time spent up to now is     52.04 secs
 Atomic wfc used for LDA+U Projector are NOT orthogonalized
 norm initial vector= 0.0001595900273358909
 Estimated error at iter  50  is  1.0139531120957768
 Estimated error at iter  100  is  0.016274095150791874
 Estimated error at iter  150  is  0.005576763898428235
 CONVERGED at iter  200  with error= 0.0002171258622258583

 Starting k-point :  13
 total cpu time spent up to now is     57.30 secs
 Atomic wfc used for LDA+U Projector are NOT orthogonalized
 norm initial vector= 0.00015961956852939002
 Estimated error at iter  50  is  1.012743867758958
 Estimated error at iter  100  is  0.13415087802879588
 Estimated error at iter  150  is  0.009584198021403414
 CONVERGED at iter  200  with error= 0.0002986983270881037

 Starting k-point :  14
 total cpu time spent up to now is     62.35 secs
 Atomic wfc used for LDA+U Projector are NOT orthogonalized
 norm initial vector= 0.00015959002733589075
 Estimated error at iter  50  is  1.0139531120957048
 Estimated error at iter  100  is  0.016252916296957545
 Estimated error at iter  150  is  0.005546329793798139
 CONVERGED at iter  200  with error= 0.0002477175871173163

 Starting k-point :  15
 total cpu time spent up to now is     67.41 secs
 Atomic wfc used for LDA+U Projector are NOT orthogonalized
 norm initial vector= 0.00015955058300974712
 Estimated error at iter  50  is  1.0141432232216805
 Estimated error at iter  100  is  0.003054538135907443
 CONVERGED at iter  150  with error= 1.7125628060330763E-14

 Starting k-point :  16
 total cpu time spent up to now is     71.20 secs
 Atomic wfc used for LDA+U Projector are NOT orthogonalized
 norm initial vector= 0.00015962985036747517
 Estimated error at iter  50  is  1.0122196580116511
 Estimated error at iter  100  is  0.00405907282348966
 CONVERGED at iter  150  with error= 6.944396648223069E-16

CALCULATION XANES SPECTRA
---------------------

 Final state angular momentum:   2
 Broadening parameter (in eV):   0.800000000000    
 Nb of energy points:   300
 Maximum energy (in eV):    20.0000000000    
 Minimum energy (in eV):   -10.0000000000    
 Binding energy of the 1s level (in eV):   -8333.00000000    
 xemin(ryd)= 0.27940876205384757
 xemax(ryd)= 2.4843682858923053
 gamma in rydberg= 0.058798920635692205
 End program xanes
     xanes        :  1m30.52s CPU time,     1m39.62s wall time

