
     Program PWSCF v.4.2        starts on  6May2010 at 17:41:51 

     This program is part of the open-source Quantum ESPRESSO suite
     for quantum simulation of materials; please acknowledge
         "P. Giannozzi et al., J. Phys.:Condens. Matter 21 395502 (2009);
          URL http://www.quantum-espresso.org", 
     in publications or presentations arising from this work. More details at
     http://www.quantum-espresso.org/wiki/index.php/Citing_Quantum-ESPRESSO

     Current dimensions of program PWSCF are:
     Max number of different atomic species (ntypx) = 10
     Max number of k-points (npk) =  40000
     Max angular momentum in pseudopotentials (lmaxx) =  3
     Waiting for input...
     file Ni.pz-nd-rrkjus.UPF: wavefunction(s)  4S renormalized
     file O.pz-rrkjus.UPF: wavefunction(s)  2S renormalized


     bravais-lattice index     =            0
     lattice parameter (a_0)   =       7.9266  a.u.
     unit-cell volume          =     124.5113 (a.u.)^3
     number of atoms/cell      =            2
     number of atomic types    =            2
     number of electrons       =        16.00
     number of Kohn-Sham states=           11
     kinetic-energy cutoff     =      45.0000  Ry
     charge density cutoff     =     180.0000  Ry
     convergence threshold     =      1.0E-05
     mixing beta               =       0.7000
     number of iterations used =            8  plain     mixing
     Exchange-correlation      =  SLA  PZ   NOGX NOGC (1100)
     EXX-fraction     =  0.00

     celldm(1)=   7.926648  celldm(2)=   0.000000  celldm(3)=   0.000000
     celldm(4)=   0.000000  celldm(5)=   0.000000  celldm(6)=   0.000000

     crystal axes: (cart. coord. in units of a_0)
               a(1) = (  0.000000  0.500000  0.500000 )  
               a(2) = (  0.500000  0.000000  0.500000 )  
               a(3) = (  0.500000  0.500000  0.000000 )  

     reciprocal axes: (cart. coord. in units 2 pi/a_0)
               b(1) = ( -1.000000  1.000000  1.000000 )  
               b(2) = (  1.000000 -1.000000  1.000000 )  
               b(3) = (  1.000000  1.000000 -1.000000 )  


     PseudoPot. # 1 for Ni read from file Ni.pz-nd-rrkjus.UPF
     Pseudo is Ultrasoft + core correction, Zval = 10.0
     Generated by new atomic code, or converted to UPF format
     Using radial grid of 1203 points,  6 beta functions with: 
                l(1) =   0
                l(2) =   0
                l(3) =   1
                l(4) =   1
                l(5) =   2
                l(6) =   2
     Q(r) pseudized with 0 coefficients 


     PseudoPot. # 2 for O  read from file O.pz-rrkjus.UPF
     Pseudo is Ultrasoft, Zval =  6.0
     Generated by new atomic code, or converted to UPF format
     Using radial grid of 1269 points,  4 beta functions with: 
                l(1) =   0
                l(2) =   0
                l(3) =   1
                l(4) =   1
     Q(r) pseudized with 0 coefficients 


     atomic species   valence    mass     pseudopotential
        Ni            10.00     1.00000     Ni( 1.00)
        O              6.00     1.00000     O ( 1.00)

     48 Sym.Ops. (with inversion)


   Cartesian axes

     site n.     atom                  positions (a_0 units)
         1           Ni  tau(  1) = (   0.0000000   0.0000000   0.0000000  )
         2           O   tau(  2) = (   0.5000000   0.5000000   0.5000000  )

     number of k points=     8  gaussian broad. (Ry)=  0.0100     ngauss =   0
                       cart. coord. in units 2pi/a_0
        k(    1) = (   0.0000000   0.0000000   0.0000000), wk =   0.0312500
        k(    2) = (   0.2500000   0.2500000  -0.2500000), wk =   0.2500000
        k(    3) = (  -0.5000000  -0.5000000   0.5000000), wk =   0.1250000
        k(    4) = (   0.5000000   0.0000000   0.0000000), wk =   0.1875000
        k(    5) = (  -0.2500000  -0.7500000   0.7500000), wk =   0.7500000
        k(    6) = (   0.0000000  -0.5000000   0.5000000), wk =   0.3750000
        k(    7) = (  -1.0000000   0.0000000   0.0000000), wk =   0.0937500
        k(    8) = (  -1.0000000   0.5000000   0.0000000), wk =   0.1875000

     G cutoff =  286.4784  (   5029 G-vectors)     FFT grid: ( 24, 24, 24)

     Largest allocated arrays     est. size (Mb)     dimensions
        Kohn-Sham Wavefunctions         0.11 Mb     (    648,  11)
        NL pseudopotentials             0.26 Mb     (    648,  26)
        Each V/rho on FFT grid          0.21 Mb     (  13824)
        Each G-vector array             0.04 Mb     (   5029)
        G-vector shells                 0.00 Mb     (     97)
     Largest temporary arrays     est. size (Mb)     dimensions
        Auxiliary wavefunctions         0.44 Mb     (    648,  44)
        Each subspace H/S matrix        0.03 Mb     (     44,  44)
        Each <psi_i|beta_j> matrix      0.00 Mb     (     26,  11)
        Arrays for rho mixing           1.69 Mb     (  13824,   8)

     Check: negative/imaginary core charge=   -0.000114    0.000000

     Initial potential from superposition of free atoms

     starting charge   15.99966, renormalised to   16.00000
     Starting wfc are   10 atomic +    1 random wfc

     total cpu time spent up to now is      1.84 secs

     per-process dynamical memory:     6.6 Mb

     Self-consistent Calculation

     iteration #  1     ecut=    45.00 Ry     beta=0.70
     Davidson diagonalization with overlap
     ethr =  1.00E-02,  avg # of iterations =  3.1

     negative rho (up, down):  0.699E-05 0.000E+00

     total cpu time spent up to now is      2.39 secs

     total energy              =    -117.04135098 Ry
     Harris-Foulkes estimate   =    -117.68337739 Ry
     estimated scf accuracy    <       0.78620869 Ry

     iteration #  2     ecut=    45.00 Ry     beta=0.70
     Davidson diagonalization with overlap
     ethr =  4.91E-03,  avg # of iterations =  2.1

     total cpu time spent up to now is      2.98 secs

     total energy              =    -116.87983195 Ry
     Harris-Foulkes estimate   =    -118.44136995 Ry
     estimated scf accuracy    <       4.62574430 Ry

     iteration #  3     ecut=    45.00 Ry     beta=0.70
     Davidson diagonalization with overlap
     ethr =  4.91E-03,  avg # of iterations =  2.2

     total cpu time spent up to now is      3.52 secs

     total energy              =    -117.50977438 Ry
     Harris-Foulkes estimate   =    -117.51568285 Ry
     estimated scf accuracy    <       0.01489485 Ry

     iteration #  4     ecut=    45.00 Ry     beta=0.70
     Davidson diagonalization with overlap
     ethr =  9.31E-05,  avg # of iterations =  2.8

     total cpu time spent up to now is      4.03 secs

     total energy              =    -117.51300228 Ry
     Harris-Foulkes estimate   =    -117.51366179 Ry
     estimated scf accuracy    <       0.00202405 Ry

     iteration #  5     ecut=    45.00 Ry     beta=0.70
     Davidson diagonalization with overlap
     ethr =  1.27E-05,  avg # of iterations =  2.4

     negative rho (up, down):  0.647E-06 0.000E+00

     total cpu time spent up to now is      4.51 secs

     total energy              =    -117.51329993 Ry
     Harris-Foulkes estimate   =    -117.51330517 Ry
     estimated scf accuracy    <       0.00001065 Ry

     iteration #  6     ecut=    45.00 Ry     beta=0.70
     Davidson diagonalization with overlap
     ethr =  6.66E-08,  avg # of iterations =  2.4

     negative rho (up, down):  0.322E-05 0.000E+00

     total cpu time spent up to now is      5.07 secs

     End of self-consistent calculation

          k = 0.0000 0.0000 0.0000 (   609 PWs)   bands (ev):

    -8.6487   8.3204   8.3204   8.3204   9.5802   9.5802   9.5802   9.7123
     9.7123  12.9829  29.1480

          k = 0.2500 0.2500-0.2500 (   631 PWs)   bands (ev):

    -8.0189   5.3311   6.7884   6.7884   9.9767   9.9767  10.1721  11.4704
    11.4704  15.6162  23.5531

          k =-0.5000-0.5000 0.5000 (   628 PWs)   bands (ev):

    -7.2635   3.2935   5.9944   5.9944  10.3876  10.3876  10.7557  12.5522
    12.5522  17.0004  21.1680

          k = 0.5000 0.0000 0.0000 (   632 PWs)   bands (ev):

    -7.8814   5.0372   7.3497   7.3497   9.0886   9.9027  10.5883  10.5883
    10.9536  16.7435  24.4619

          k =-0.2500-0.7500 0.7500 (   637 PWs)   bands (ev):

    -7.2334   4.3024   5.7537   6.4202   9.7098  10.4982  10.6957  11.3831
    11.3987  18.8073  21.0765

          k = 0.0000-0.5000 0.5000 (   636 PWs)   bands (ev):

    -7.3889   4.3084   5.9754   6.1189  10.1718  10.3059  10.6306  10.8169
    12.4713  18.3311  22.2541

          k =-1.0000 0.0000 0.0000 (   636 PWs)   bands (ev):

    -7.1888   4.5161   7.0609   7.0609   8.6158  10.0965  10.6292  10.6630
    10.6630  17.5597  21.7360

          k =-1.0000 0.5000 0.0000 (   648 PWs)   bands (ev):

    -7.0829   5.3209   5.3209   5.6996  10.2582  10.2582  10.4988  10.6637
    11.3116  19.8026  21.9687

     the Fermi energy is    11.3675 ev

!    total energy              =    -117.51330163 Ry
     Harris-Foulkes estimate   =    -117.51330598 Ry
     estimated scf accuracy    <       0.00000509 Ry

     The total energy is the sum of the following terms:

     one-electron contribution =      -7.96029278 Ry
     hartree contribution      =      21.97709721 Ry
     xc contribution           =     -36.36359053 Ry
     ewald contribution        =     -95.16117712 Ry
     smearing contrib. (-TS)   =      -0.00533841 Ry

     convergence has been achieved in   6 iterations

     Writing output data file NiO.save
 
     init_run     :      1.74s CPU      1.75s WALL (       1 calls)
     electrons    :      3.20s CPU      3.23s WALL (       1 calls)

     Called by init_run:
     wfcinit      :      0.14s CPU      0.14s WALL (       1 calls)
     potinit      :      0.01s CPU      0.01s WALL (       1 calls)

     Called by electrons:
     c_bands      :      2.37s CPU      2.38s WALL (       6 calls)
     sum_band     :      0.62s CPU      0.63s WALL (       6 calls)
     v_of_rho     :      0.02s CPU      0.02s WALL (       7 calls)
     newd         :      0.20s CPU      0.20s WALL (       7 calls)
     mix_rho      :      0.02s CPU      0.01s WALL (       6 calls)

     Called by c_bands:
     init_us_2    :      0.04s CPU      0.05s WALL (     104 calls)
     cegterg      :      2.26s CPU      2.26s WALL (      48 calls)

     Called by *egterg:
     h_psi        :      2.09s CPU      2.07s WALL (     176 calls)
     s_psi        :      0.04s CPU      0.04s WALL (     176 calls)
     g_psi        :      0.01s CPU      0.02s WALL (     120 calls)
     cdiaghg      :      0.10s CPU      0.09s WALL (     168 calls)

     Called by h_psi:
     add_vuspsi   :      0.04s CPU      0.05s WALL (     176 calls)

     General routines
     calbec       :      0.06s CPU      0.07s WALL (     224 calls)
     cft3         :      0.06s CPU      0.05s WALL (      41 calls)
     cft3s        :      2.22s CPU      2.21s WALL (    3384 calls)
     davcio       :      0.00s CPU      0.01s WALL (     152 calls)
 
 
     PWSCF        :     5.16s CPU time,        5.26s WALL time

 
   This run was terminated on:  17:41:56   6May2010            

=------------------------------------------------------------------------------=
   JOB DONE.
=------------------------------------------------------------------------------=
