                                                                  \      /  |         
                                       ``:oss/                     \    /   |         
                           `.+s+.     .+ys--yh+     `./ss+.         \  /    |   |     
                          -sh//yy+`   +yy   +yy    -+h+-oyy          \/     |----     
                          -yh- .oyy/.-sh.   .syo-.:sy-  /yh                     |     
                 `.-.`    `yh+   -oyyyo.     `/syys:    oys      `.`                  
               `/+ssys+-` `sh+      `                   oys`   .:osyo`                
               -yh- ./syyooyo`                          .sys+/oyo--yh/                
               `yy+    .-:-.                             `-/+/:`  -sh-                
                /yh.                                              oys                 
          ``..---hho---------`   .---------..`      `.-----.`    -hd+---.             
       `./osmNMMMMMMMMMMMMMMMs. +NNMMMMMMMMNNmh+.   yNMMMMMNm-  oNMMMMMNmo++:`        
       +sy--/sdMMMhyyyyyyyNMMh- .oyNMMmyyyyyhNMMm+` -yMMMdyyo:` .oyyNMMNhs+syy`       
       -yy/   /MMM+.`-+/``mMMy-   `mMMh:`````.dMMN:` `MMMy-`-dhhy```mMMy:``+hs        
        -yy+` /MMMo:-mMM+`-oo/.    mMMh:     `dMMN/`  dMMm:`dMMMMy..MMMo-.+yo`        
         .sys`/MMMMNNMMMs-         mMMmyooooymMMNo:   oMMM/sMMMMMM++MMN//oh:          
          `sh+/MMMhyyMMMs- `-`     mMMMMMMMMMNmy+-`   -MMMhMMMsmMMmdMMd/yy+           
    `-/+++oyy-/MMM+.`/hh/.`mNm:`   mMMd+/////:-.`      NMMMMMd/:NMMMMMy:/yyo/:.`      
   +os+//:-..-oMMMo:--:::-/MMMo. .-mMMd+---`           hMMMMN+. oMMMMMo. `-+osyso:`   
   syo     `mNMMMMMNNNNNNNNMMMo.oNNMMMMMNNNN:`         +MMMMs:`  dMMMN/`     ``:syo   
   /yh`     :syyyyyyyyyyyyyyyy+.`+syyyyyyyyo:`         .oyys:`   .oyys:`        +yh   
   -yh-        ````````````````    `````````              ``        ``          oys   
   -+h/------------------------::::::::://////++++++++++++++++++++++///////::::/yd:   
   shdddddddddddddddddddddddddddddhhhhhhhhyyyyyssssssssssssssssyyyyyyyhhhhhhhddddh`   
                                                                                      

     Program EPW v.4.0.0 (svn rev. 12139) starts on  1Mar2016 at 14: 4:41 

     This program is part of the open-source Quantum ESPRESSO suite
     for quantum simulation of materials; please cite
         "P. Giannozzi et al., J. Phys.:Condens. Matter 21 395502 (2009);
          URL http://www.quantum-espresso.org", 
     in publications or presentations arising from this work. More details at
     http://www.quantum-espresso.org/quote

     Parallel version (MPI), running on     4 processors
     K-points division:     npool     =       4

     Reading data from directory:
     ./pb.save

   Info: using nr1, nr2, nr3 values from input

   Info: using nr1, nr2, nr3 values from input

     IMPORTANT: XC functional enforced from input :
     Exchange-correlation      = PZ ( 1  1  0  0 0 0)
     Any further DFT definition will be discarded
     Please, verify this is what you really want


     G-vector sticks info
     --------------------
     sticks:   dense  smooth     PW     G-vecs:    dense   smooth      PW
     Sum         703     703    211                12387    12387    2109


     --                                                                         

     bravais-lattice index     =            2
     lattice parameter (a_0)   =       9.2700  a.u.
     unit-cell volume          =     199.1495 (a.u.)^3
     number of atoms/cell      =            1
     number of atomic types    =            1
     kinetic-energy cut-off    =      60.0000  Ry
     charge density cut-off    =     240.0000  Ry
     convergence threshold     =      0.0E+00
     beta                      =       0.0000
     number of iterations used =            0
     Exchange-correlation      = PZ ( 1  1  0  0 0 0)


     celldm(1)=    9.27000  celldm(2)=    0.00000  celldm(3)=    0.00000
     celldm(4)=    0.00000  celldm(5)=    0.00000  celldm(6)=    0.00000

     crystal axes: (cart. coord. in units of a_0)
               a(1) = ( -0.5000  0.0000  0.5000 )  
               a(2) = (  0.0000  0.5000  0.5000 )  
               a(3) = ( -0.5000  0.5000  0.0000 )  

     reciprocal axes: (cart. coord. in units 2 pi/a_0)
               b(1) = ( -1.0000 -1.0000  1.0000 )  
               b(2) = (  1.0000  1.0000  1.0000 )  
               b(3) = ( -1.0000  1.0000 -1.0000 )  


     Atoms inside the unit cell: 

   Cartesian axes

     site n.  atom      mass           positions (a_0 units)
        1        Pb 207.2175   tau( 1) = (    0.00000    0.00000    0.00000  )

     49 Sym.Ops. (with q -> -q+G )


     G cutoff =  522.4094  (  12387 G-vectors)     FFT grid: ( 36, 36, 36)
     number of k points=   27  gaussian broad. (Ry)=  0.0200     ngauss =   1
                       cart. coord. in units 2pi/a_0
        k(    1) = (   0.0000000   0.0000000   0.0000000), wk =   0.0740741
        k(    2) = (  -0.3333333   0.3333333  -0.3333333), wk =   0.0740741
        k(    3) = (  -0.6666667   0.6666667  -0.6666667), wk =   0.0740741
        k(    4) = (   0.3333333   0.3333333   0.3333333), wk =   0.0740741
        k(    5) = (   0.0000000   0.6666667   0.0000000), wk =   0.0740741
        k(    6) = (  -0.3333333   1.0000000  -0.3333333), wk =   0.0740741
        k(    7) = (   0.6666667   0.6666667   0.6666667), wk =   0.0740741
        k(    8) = (   0.3333333   1.0000000   0.3333333), wk =   0.0740741
        k(    9) = (   0.0000000   1.3333333   0.0000000), wk =   0.0740741
        k(   10) = (  -0.3333333  -0.3333333   0.3333333), wk =   0.0740741
        k(   11) = (  -0.6666667   0.0000000   0.0000000), wk =   0.0740741
        k(   12) = (  -1.0000000   0.3333333  -0.3333333), wk =   0.0740741
        k(   13) = (   0.0000000   0.0000000   0.6666667), wk =   0.0740741
        k(   14) = (  -0.3333333   0.3333333   0.3333333), wk =   0.0740741
        k(   15) = (  -0.6666667   0.6666667  -0.0000000), wk =   0.0740741
        k(   16) = (   0.3333333   0.3333333   1.0000000), wk =   0.0740741
        k(   17) = (   0.0000000   0.6666667   0.6666667), wk =   0.0740741
        k(   18) = (  -0.3333333   1.0000000   0.3333333), wk =   0.0740741
        k(   19) = (  -0.6666667  -0.6666667   0.6666667), wk =   0.0740741
        k(   20) = (  -1.0000000  -0.3333333   0.3333333), wk =   0.0740741
        k(   21) = (  -1.3333333   0.0000000   0.0000000), wk =   0.0740741
        k(   22) = (  -0.3333333  -0.3333333   1.0000000), wk =   0.0740741
        k(   23) = (  -0.6666667  -0.0000000   0.6666667), wk =   0.0740741
        k(   24) = (  -1.0000000   0.3333333   0.3333333), wk =   0.0740741
        k(   25) = (   0.0000000   0.0000000   1.3333333), wk =   0.0740741
        k(   26) = (  -0.3333333   0.3333333   1.0000000), wk =   0.0740741
        k(   27) = (  -0.6666667   0.6666667   0.6666667), wk =   0.0740741

     PseudoPot. # 1 for Pb read from file:
     ../../pp/pb_s.UPF
     MD5 check sum: 7774f596943a2055f0d8d19eea6f2ae8
     Pseudo is Norm-conserving, Zval = 14.0
     Generated using "atomic" code by A. Dal Corso  (Quantum ESPRESSO distribution)
     Using radial grid of 1281 points,  2 beta functions with: 
                l(1) =   2
                l(2) =   1
     EPW          :     0.24s CPU         0.25s WALL

     EPW          :     0.48s CPU         0.51s WALL

     No wavefunction gauge setting applied
     -------------------------------------------------------------------
     Wannierization on  3 x  3 x  3 electronic grid
     -------------------------------------------------------------------

     Spin CASE ( default = unpolarized )

     Initializing Wannier90


     Initial Wannier projections

     (   0.00000   0.00000   0.00000) :  l =  -3 mr =   1
     (   0.00000   0.00000   0.00000) :  l =  -3 mr =   2
     (   0.00000   0.00000   0.00000) :  l =  -3 mr =   3
     (   0.00000   0.00000   0.00000) :  l =  -3 mr =   4

      - Number of bands is ( 11)
      - Number of wannier functions is (  4)
      - All guiding functions are given 
      - All neighbours are found 

     AMN
      k points =    27 in    4 pools
            1 of    7 on ionode
            2 of    7 on ionode
            3 of    7 on ionode
            4 of    7 on ionode
            5 of    7 on ionode
            6 of    7 on ionode
            7 of    7 on ionode

     AMN calculated

     MMN
      k points =    27 in    4 pools
            1 of    7 on ionode
            2 of    7 on ionode
            3 of    7 on ionode
            4 of    7 on ionode
            5 of    7 on ionode
            6 of    7 on ionode
            7 of    7 on ionode
     MMN calculated

     Running Wannier90

     Wannier Function centers (cartesian, alat) and spreads (ang):

     (   0.08268   0.08268   0.08268) :   1.58499
     (   0.08268  -0.08268  -0.08268) :   1.58499
     (  -0.08268   0.08268  -0.08268) :   1.58499
     (  -0.08268  -0.08268   0.08268) :   1.58499

     -------------------------------------------------------------------
     WANNIER      :      3.00s CPU      3.01s WALL (       1 calls)
     -------------------------------------------------------------------

     Dipole matrix elements calculated


     Calculating kmap and kgmap
     Progress  kmap: ###########################
     Progress kgmap: ########################################
     kmaps        :      3.00s CPU      3.02s WALL (       1 calls)
     Symmetries of bravais lattice:  48
     Symmetries of crystal:          48


     ===================================================================
     irreducible q point #    1
     ===================================================================

     Symmetries of small group of q: 48
          in addition sym. q -> -q+G:

     Number of q in the star =    1
     List of q in the star:
          1   0.000000000   0.000000000   0.000000000
        Imposing acoustic sum rule on the dynamical matrix

        q(    1 ) = (   0.0000000   0.0000000   0.0000000 )


     ===================================================================
     irreducible q point #    2
     ===================================================================

     Symmetries of small group of q:  6

     Number of q in the star =    8
     List of q in the star:
          1  -0.333333333   0.333333333  -0.333333333
          2   0.333333333   0.333333333  -0.333333333
          3   0.333333333   0.333333333   0.333333333
          4  -0.333333333   0.333333333   0.333333333
          5   0.333333333  -0.333333333   0.333333333
          6  -0.333333333  -0.333333333  -0.333333333
          7   0.333333333  -0.333333333  -0.333333333
          8  -0.333333333  -0.333333333   0.333333333

        q(    2 ) = (  -0.3333333   0.3333333  -0.3333333 )
        q(    3 ) = (   0.3333333   0.3333333  -0.3333333 )
        q(    4 ) = (   0.3333333   0.3333333   0.3333333 )
        q(    5 ) = (  -0.3333333   0.3333333   0.3333333 )
        q(    6 ) = (   0.3333333  -0.3333333   0.3333333 )
        q(    7 ) = (  -0.3333333  -0.3333333  -0.3333333 )
        q(    8 ) = (   0.3333333  -0.3333333  -0.3333333 )
        q(    9 ) = (  -0.3333333  -0.3333333   0.3333333 )


     ===================================================================
     irreducible q point #    3
     ===================================================================

     Symmetries of small group of q:  8

     Number of q in the star =    6
     List of q in the star:
          1   0.000000000   0.666666667   0.000000000
          2  -0.666666667   0.000000000   0.000000000
          3   0.000000000  -0.666666667   0.000000000
          4   0.000000000   0.000000000   0.666666667
          5   0.000000000   0.000000000  -0.666666667
          6   0.666666667   0.000000000   0.000000000

        q(   10 ) = (   0.0000000   0.6666667   0.0000000 )
        q(   11 ) = (  -0.6666667   0.0000000   0.0000000 )
        q(   12 ) = (   0.0000000  -0.6666667   0.0000000 )
        q(   13 ) = (   0.0000000   0.0000000   0.6666667 )
        q(   14 ) = (   0.0000000   0.0000000  -0.6666667 )
        q(   15 ) = (   0.6666667   0.0000000   0.0000000 )


     ===================================================================
     irreducible q point #    4
     ===================================================================

     Symmetries of small group of q:  4

     Number of q in the star =   12
     List of q in the star:
          1   0.666666667   0.000000000   0.666666667
          2   0.666666667   0.000000000  -0.666666667
          3  -0.666666667   0.000000000  -0.666666667
          4  -0.666666667   0.000000000   0.666666667
          5   0.000000000  -0.666666667   0.666666667
          6  -0.666666667   0.666666667   0.000000000
          7  -0.666666667  -0.666666667   0.000000000
          8   0.666666667   0.666666667   0.000000000
          9   0.666666667  -0.666666667   0.000000000
         10   0.000000000   0.666666667   0.666666667
         11   0.000000000   0.666666667  -0.666666667
         12   0.000000000  -0.666666667  -0.666666667

        q(   16 ) = (   0.6666667   0.0000000   0.6666667 )
        q(   17 ) = (   0.6666667   0.0000000  -0.6666667 )
        q(   18 ) = (  -0.6666667   0.0000000  -0.6666667 )
        q(   19 ) = (  -0.6666667   0.0000000   0.6666667 )
        q(   20 ) = (   0.0000000  -0.6666667   0.6666667 )
        q(   21 ) = (  -0.6666667   0.6666667   0.0000000 )
        q(   22 ) = (  -0.6666667  -0.6666667   0.0000000 )
        q(   23 ) = (   0.6666667   0.6666667   0.0000000 )
        q(   24 ) = (   0.6666667  -0.6666667   0.0000000 )
        q(   25 ) = (   0.0000000   0.6666667   0.6666667 )
        q(   26 ) = (   0.0000000   0.6666667  -0.6666667 )
        q(   27 ) = (   0.0000000  -0.6666667  -0.6666667 )

     Writing epmatq on .epb files


              band disentanglement is used:  nbndsub =    4

     Writing Hamiltonian, Dynamical matrix and EP vertex in Wann rep to file


     Reading Hamiltonian, Dynamical matrix and EP vertex in Wann rep from file


     Finished reading Wann rep data from file

     Using uniform q-mesh:    6   6   6
     Size of q point mesh for interpolation:        216
     Using uniform k-mesh:    6   6   6
     Size of k point mesh for interpolation:        432
     Max number of k points per pool:              108

     Fermi energy coarse grid =   9.797928 eV

     Skipping the first    5 bands:

     The Fermi level will be determined with   4.00000 electrons

     Fermi energy is calculated from the fine k-mesh: Ef =  11.759000 eV

     Warning: check if difference with Fermi level fine grid makes sense

     ===================================================================

              ibndmin =     2  ebndmin =     0.501
              ibndmax =     4  ebndmax =     1.265


     Number of ep-matrix elements per pool :         1458 ~=   11.39 Kb (@ 8 bytes/ DP)

     ===================================================================
     Phonon (Imaginary) Self-Energy in the Migdal Approximation
     ===================================================================


     Fermi Surface thickness =   6.000000 eV

     Golden Rule strictly enforced with T =   0.172347 eV
     Gaussian Broadening:   1.000000 eV, ngauss=   1
     DOS =  0.295677 states/spin/eV/Unit Cell at Ef= 11.759000 eV

     ismear =     1 iq =       1 coord.:   0.00000  0.00000  0.00000 wt:   0.00463
     -------------------------------------------------------------------
     lambda(   1 )=       0.000000   gamma=       0.000000 meV   omega=      0.0000 meV
     lambda(   2 )=       0.000000   gamma=       0.000000 meV   omega=      0.0000 meV
     lambda(   3 )=       0.000000   gamma=       0.000000 meV   omega=      0.0000 meV
     lambda( tot )=       0.000000
     -------------------------------------------------------------------


     Number of (k,k+q) pairs on the Fermi surface:      215 out of      216


     ===================================================================
     Electron (Imaginary) Self-Energy in the Migdal Approximation
     ===================================================================


     Fermi Surface thickness =   6.000000 eV

     Golden Rule strictly enforced with T =   0.172347 eV
     Gaussian Broadening:   1.000000 eV, ngauss=   1
     DOS =  0.295677 states/spin/eV/Unit Cell at Ef= 11.759000 eV
 

     ismear =     1 iq =       2 coord.:   0.00000  0.00000  0.16667 wt:   0.00463
     -------------------------------------------------------------------
     lambda(   1 )=       0.000000   gamma=       0.000000 meV   omega=     -3.4591 meV
     lambda(   2 )=       0.000000   gamma=       0.000000 meV   omega=     -1.6972 meV
     lambda(   3 )=       0.000000   gamma=       0.000000 meV   omega=     -1.6972 meV
     lambda( tot )=       0.000000
     -------------------------------------------------------------------


     Number of (k,k+q) pairs on the Fermi surface:      214 out of      216


     ismear =     1 iq =       3 coord.:   0.00000  0.00000  0.33333 wt:   0.00463
     -------------------------------------------------------------------
     lambda(   1 )=       0.000000   gamma=       0.000000 meV   omega=     -3.3764 meV
     lambda(   2 )=       0.210937   gamma=       0.001658 meV   omega=      2.9086 meV
     lambda(   3 )=       0.210937   gamma=       0.001658 meV   omega=      2.9086 meV
     lambda( tot )=       0.421874
     -------------------------------------------------------------------


     Number of (k,k+q) pairs on the Fermi surface:      214 out of      216


     ismear =     1 iq =       4 coord.:   0.00000  0.00000  0.50000 wt:   0.00463
     -------------------------------------------------------------------
     lambda(   1 )=      56.757604   gamma=       0.059637 meV   omega=      1.0636 meV
     lambda(   2 )=      -0.336896   gamma=      -0.007098 meV   omega=      4.7625 meV
     lambda(   3 )=      -0.336896   gamma=      -0.007098 meV   omega=      4.7625 meV
     lambda( tot )=      56.083812
     -------------------------------------------------------------------


     Number of (k,k+q) pairs on the Fermi surface:      214 out of      216


     ismear =     1 iq =       5 coord.:   0.00000  0.00000  0.66667 wt:   0.00463
     -------------------------------------------------------------------
     lambda(   1 )=       0.000000   gamma=       0.000000 meV   omega=     -3.3764 meV
     lambda(   2 )=       0.210937   gamma=       0.001658 meV   omega=      2.9086 meV
     lambda(   3 )=       0.210939   gamma=       0.001658 meV   omega=      2.9086 meV
     lambda( tot )=       0.421876
     -------------------------------------------------------------------


     Number of (k,k+q) pairs on the Fermi surface:      214 out of      216


     ismear =     1 iq =       6 coord.:   0.00000  0.00000  0.83333 wt:   0.00463
     -------------------------------------------------------------------
     lambda(   1 )=       0.000000   gamma=       0.000000 meV   omega=     -3.4591 meV
     lambda(   2 )=       0.000000   gamma=       0.000000 meV   omega=     -1.6972 meV
     lambda(   3 )=       0.000000   gamma=       0.000000 meV   omega=     -1.6972 meV
     lambda( tot )=       0.000000
     -------------------------------------------------------------------


     Number of (k,k+q) pairs on the Fermi surface:      214 out of      216


     ismear =     1 iq =       7 coord.:   0.00000  0.16667  0.00000 wt:   0.00463
     -------------------------------------------------------------------
     lambda(   1 )=       0.000000   gamma=       0.000000 meV   omega=     -3.4591 meV
     lambda(   2 )=       0.000000   gamma=       0.000000 meV   omega=     -1.6972 meV
     lambda(   3 )=       0.000000   gamma=       0.000000 meV   omega=     -1.6972 meV
     lambda( tot )=       0.000000
     -------------------------------------------------------------------


     Number of (k,k+q) pairs on the Fermi surface:      214 out of      216


     ismear =     1 iq =       8 coord.:   0.00000  0.16667  0.16667 wt:   0.00463
     -------------------------------------------------------------------
     lambda(   1 )=       0.000000   gamma=       0.000000 meV   omega=     -4.7009 meV
     lambda(   2 )=       0.000000   gamma=       0.000000 meV   omega=     -4.7009 meV
     lambda(   3 )=       1.431385   gamma=       0.027897 meV   omega=      4.5806 meV
     lambda( tot )=       1.431385
     -------------------------------------------------------------------


     Number of (k,k+q) pairs on the Fermi surface:      214 out of      216


     ismear =     1 iq =       9 coord.:   0.00000  0.16667  0.33333 wt:   0.00463
     -------------------------------------------------------------------
     lambda(   1 )=       0.000000   gamma=       0.000000 meV   omega=     -4.7033 meV
     lambda(   2 )=       0.000000   gamma=       0.000000 meV   omega=     -4.2534 meV
     lambda(   3 )=      -0.074404   gamma=      -0.002572 meV   omega=      6.1000 meV
     lambda( tot )=      -0.074404
     -------------------------------------------------------------------


     Number of (k,k+q) pairs on the Fermi surface:      214 out of      216


     ismear =     1 iq =      10 coord.:   0.00000  0.16667  0.50000 wt:   0.00463
     -------------------------------------------------------------------
     lambda(   1 )=      -0.848189   gamma=      -0.006868 meV   omega=      2.9525 meV
     lambda(   2 )=       0.073347   gamma=       0.000903 meV   omega=      3.6398 meV
     lambda(   3 )=      -0.411973   gamma=      -0.015257 meV   omega=      6.3141 meV
     lambda( tot )=      -1.186815
     -------------------------------------------------------------------


     Number of (k,k+q) pairs on the Fermi surface:      214 out of      216


     ismear =     1 iq =      11 coord.:   0.00000  0.16667  0.66667 wt:   0.00463
     -------------------------------------------------------------------
     lambda(   1 )=     -26.307902   gamma=      -0.088538 meV   omega=      1.9034 meV
     lambda(   2 )=       0.986747   gamma=       0.018930 meV   omega=      4.5446 meV
     lambda(   3 )=       1.016713   gamma=       0.022174 meV   omega=      4.8454 meV
     lambda( tot )=     -24.304442
     -------------------------------------------------------------------


     Number of (k,k+q) pairs on the Fermi surface:      214 out of      216


     ismear =     1 iq =      12 coord.:   0.00000  0.16667  0.83333 wt:   0.00463
     -------------------------------------------------------------------
     lambda(   1 )=       0.000000   gamma=       0.000000 meV   omega=     -4.8509 meV
     lambda(   2 )=      -8.860254   gamma=      -0.004791 meV   omega=      0.7629 meV
     lambda(   3 )=       0.047010   gamma=       0.000496 meV   omega=      3.3700 meV
     lambda( tot )=      -8.813244
     -------------------------------------------------------------------


     Number of (k,k+q) pairs on the Fermi surface:      214 out of      216


     ismear =     1 iq =      13 coord.:   0.00000  0.33333  0.00000 wt:   0.00463
     -------------------------------------------------------------------
     lambda(   1 )=       0.000000   gamma=       0.000000 meV   omega=     -3.3764 meV
     lambda(   2 )=       0.210937   gamma=       0.001658 meV   omega=      2.9086 meV
     lambda(   3 )=       0.210937   gamma=       0.001658 meV   omega=      2.9086 meV
     lambda( tot )=       0.421874
     -------------------------------------------------------------------


     Number of (k,k+q) pairs on the Fermi surface:      214 out of      216


     ismear =     1 iq =      14 coord.:   0.00000  0.33333  0.16667 wt:   0.00463
     -------------------------------------------------------------------
     lambda(   1 )=       0.000000   gamma=       0.000000 meV   omega=     -4.7033 meV
     lambda(   2 )=       0.000000   gamma=       0.000000 meV   omega=     -4.2534 meV
     lambda(   3 )=      -0.074399   gamma=      -0.002572 meV   omega=      6.1000 meV
     lambda( tot )=      -0.074399
     -------------------------------------------------------------------


     Number of (k,k+q) pairs on the Fermi surface:      214 out of      216


     ismear =     1 iq =      15 coord.:   0.00000  0.33333  0.33333 wt:   0.00463
     -------------------------------------------------------------------
     lambda(   1 )=       0.000000   gamma=       0.000000 meV   omega=     -5.3620 meV
     lambda(   2 )=       0.000000   gamma=       0.000000 meV   omega=     -5.3620 meV
     lambda(   3 )=       0.097143   gamma=       0.006194 meV   omega=      8.2853 meV
     lambda( tot )=       0.097143
     -------------------------------------------------------------------


     Number of (k,k+q) pairs on the Fermi surface:      214 out of      216


     ismear =     1 iq =      16 coord.:   0.00000  0.33333  0.50000 wt:   0.00463
     -------------------------------------------------------------------
     lambda(   1 )=       0.000000   gamma=       0.000000 meV   omega=     -2.1784 meV
     lambda(   2 )=       0.000000   gamma=       0.000000 meV   omega=     -0.9745 meV
     lambda(   3 )=       0.026951   gamma=       0.001969 meV   omega=      8.8679 meV
     lambda( tot )=       0.026951
     -------------------------------------------------------------------


     Number of (k,k+q) pairs on the Fermi surface:      214 out of      216


     ismear =     1 iq =      17 coord.:   0.00000  0.33333  0.66667 wt:   0.00463
     -------------------------------------------------------------------
     lambda(   1 )=       0.219236   gamma=       0.004263 meV   omega=      4.5752 meV
     lambda(   2 )=       0.058560   gamma=       0.001625 meV   omega=      5.4661 meV
     lambda(   3 )=       0.130985   gamma=       0.006111 meV   omega=      7.0868 meV
     lambda( tot )=       0.408781
     -------------------------------------------------------------------


     Number of (k,k+q) pairs on the Fermi surface:      214 out of      216


     ismear =     1 iq =      18 coord.:   0.00000  0.33333  0.83333 wt:   0.00463
     -------------------------------------------------------------------
     lambda(   1 )=     -26.307138   gamma=      -0.088536 meV   omega=      1.9034 meV
     lambda(   2 )=       0.986766   gamma=       0.018931 meV   omega=      4.5446 meV
     lambda(   3 )=       1.016728   gamma=       0.022174 meV   omega=      4.8454 meV
     lambda( tot )=     -24.303644
     -------------------------------------------------------------------


     Number of (k,k+q) pairs on the Fermi surface:      214 out of      216


     ismear =     1 iq =      19 coord.:   0.00000  0.50000  0.00000 wt:   0.00463
     -------------------------------------------------------------------
     lambda(   1 )=      56.757573   gamma=       0.059637 meV   omega=      1.0636 meV
     lambda(   2 )=      -0.336896   gamma=      -0.007098 meV   omega=      4.7625 meV
     lambda(   3 )=      -0.336897   gamma=      -0.007098 meV   omega=      4.7625 meV
     lambda( tot )=      56.083779
     -------------------------------------------------------------------


     Number of (k,k+q) pairs on the Fermi surface:      214 out of      216


     ismear =     1 iq =      20 coord.:   0.00000  0.50000  0.16667 wt:   0.00463
     -------------------------------------------------------------------
     lambda(   1 )=      -0.848187   gamma=      -0.006868 meV   omega=      2.9525 meV
     lambda(   2 )=       0.073338   gamma=       0.000902 meV   omega=      3.6398 meV
     lambda(   3 )=      -0.411971   gamma=      -0.015256 meV   omega=      6.3141 meV
     lambda( tot )=      -1.186819
     -------------------------------------------------------------------


     Number of (k,k+q) pairs on the Fermi surface:      214 out of      216


     ismear =     1 iq =      21 coord.:   0.00000  0.50000  0.33333 wt:   0.00463
     -------------------------------------------------------------------
     lambda(   1 )=       0.000000   gamma=       0.000000 meV   omega=     -2.1784 meV
     lambda(   2 )=       0.000000   gamma=       0.000000 meV   omega=     -0.9745 meV
     lambda(   3 )=       0.026952   gamma=       0.001969 meV   omega=      8.8679 meV
     lambda( tot )=       0.026952
     -------------------------------------------------------------------


     Number of (k,k+q) pairs on the Fermi surface:      214 out of      216


     ismear =     1 iq =      22 coord.:   0.00000  0.50000  0.50000 wt:   0.00463
     -------------------------------------------------------------------
     lambda(   1 )=       0.000000   gamma=       0.000000 meV   omega=     -3.6477 meV
     lambda(   2 )=       0.000000   gamma=       0.000000 meV   omega=     -3.6477 meV
     lambda(   3 )=       0.440181   gamma=       0.038978 meV   omega=      9.7636 meV
     lambda( tot )=       0.440181
     -------------------------------------------------------------------


     Number of (k,k+q) pairs on the Fermi surface:      214 out of      216


     ismear =     1 iq =      23 coord.:   0.00000  0.50000  0.66667 wt:   0.00463
     -------------------------------------------------------------------
     lambda(   1 )=       0.000000   gamma=       0.000000 meV   omega=     -2.1784 meV
     lambda(   2 )=       0.000000   gamma=       0.000000 meV   omega=     -0.9745 meV
     lambda(   3 )=       0.026955   gamma=       0.001969 meV   omega=      8.8679 meV
     lambda( tot )=       0.026955
     -------------------------------------------------------------------


     Number of (k,k+q) pairs on the Fermi surface:      214 out of      216


     ismear =     1 iq =      24 coord.:   0.00000  0.50000  0.83333 wt:   0.00463
     -------------------------------------------------------------------
     lambda(   1 )=      -0.848023   gamma=      -0.006867 meV   omega=      2.9525 meV
     lambda(   2 )=       0.073354   gamma=       0.000903 meV   omega=      3.6398 meV
     lambda(   3 )=      -0.411966   gamma=      -0.015256 meV   omega=      6.3141 meV
     lambda( tot )=      -1.186635
     -------------------------------------------------------------------


     Number of (k,k+q) pairs on the Fermi surface:      214 out of      216


     ismear =     1 iq =      25 coord.:   0.00000  0.66667  0.00000 wt:   0.00463
     -------------------------------------------------------------------
     lambda(   1 )=       0.000000   gamma=       0.000000 meV   omega=     -3.3764 meV
     lambda(   2 )=       0.210938   gamma=       0.001658 meV   omega=      2.9086 meV
     lambda(   3 )=       0.210938   gamma=       0.001658 meV   omega=      2.9086 meV
     lambda( tot )=       0.421876
     -------------------------------------------------------------------


     Number of (k,k+q) pairs on the Fermi surface:      214 out of      216


     ismear =     1 iq =      26 coord.:   0.00000  0.66667  0.16667 wt:   0.00463
     -------------------------------------------------------------------
     lambda(   1 )=     -26.307909   gamma=      -0.088538 meV   omega=      1.9034 meV
     lambda(   2 )=       0.986748   gamma=       0.018930 meV   omega=      4.5446 meV
     lambda(   3 )=       1.016713   gamma=       0.022174 meV   omega=      4.8454 meV
     lambda( tot )=     -24.304448
     -------------------------------------------------------------------


     Number of (k,k+q) pairs on the Fermi surface:      214 out of      216


     ismear =     1 iq =      27 coord.:   0.00000  0.66667  0.33333 wt:   0.00463
     -------------------------------------------------------------------
     lambda(   1 )=       0.219237   gamma=       0.004263 meV   omega=      4.5752 meV
     lambda(   2 )=       0.058560   gamma=       0.001625 meV   omega=      5.4661 meV
     lambda(   3 )=       0.130985   gamma=       0.006111 meV   omega=      7.0868 meV
     lambda( tot )=       0.408782
     -------------------------------------------------------------------


     Number of (k,k+q) pairs on the Fermi surface:      214 out of      216


     ismear =     1 iq =      28 coord.:   0.00000  0.66667  0.50000 wt:   0.00463
     -------------------------------------------------------------------
     lambda(   1 )=       0.000000   gamma=       0.000000 meV   omega=     -2.1784 meV
     lambda(   2 )=       0.000000   gamma=       0.000000 meV   omega=     -0.9745 meV
     lambda(   3 )=       0.026955   gamma=       0.001969 meV   omega=      8.8679 meV
     lambda( tot )=       0.026955
     -------------------------------------------------------------------


     Number of (k,k+q) pairs on the Fermi surface:      214 out of      216


     ismear =     1 iq =      29 coord.:   0.00000  0.66667  0.66667 wt:   0.00463
     -------------------------------------------------------------------
     lambda(   1 )=       0.000000   gamma=       0.000000 meV   omega=     -5.3620 meV
     lambda(   2 )=       0.000000   gamma=       0.000000 meV   omega=     -5.3620 meV
     lambda(   3 )=       0.097142   gamma=       0.006194 meV   omega=      8.2853 meV
     lambda( tot )=       0.097142
     -------------------------------------------------------------------


     Number of (k,k+q) pairs on the Fermi surface:      214 out of      216


     ismear =     1 iq =      30 coord.:   0.00000  0.66667  0.83333 wt:   0.00463
     -------------------------------------------------------------------
     lambda(   1 )=       0.000000   gamma=       0.000000 meV   omega=     -4.7033 meV
     lambda(   2 )=       0.000000   gamma=       0.000000 meV   omega=     -4.2534 meV
     lambda(   3 )=      -0.074383   gamma=      -0.002571 meV   omega=      6.1000 meV
     lambda( tot )=      -0.074383
     -------------------------------------------------------------------


     Number of (k,k+q) pairs on the Fermi surface:      214 out of      216


     ismear =     1 iq =      31 coord.:   0.00000  0.83333  0.00000 wt:   0.00463
     -------------------------------------------------------------------
     lambda(   1 )=       0.000000   gamma=       0.000000 meV   omega=     -3.4591 meV
     lambda(   2 )=       0.000000   gamma=       0.000000 meV   omega=     -1.6972 meV
     lambda(   3 )=       0.000000   gamma=       0.000000 meV   omega=     -1.6972 meV
     lambda( tot )=       0.000000
     -------------------------------------------------------------------


     Number of (k,k+q) pairs on the Fermi surface:      214 out of      216


     ismear =     1 iq =      32 coord.:   0.00000  0.83333  0.16667 wt:   0.00463
     -------------------------------------------------------------------
     lambda(   1 )=       0.000000   gamma=       0.000000 meV   omega=     -4.8509 meV
     lambda(   2 )=      -8.860345   gamma=      -0.004791 meV   omega=      0.7629 meV
     lambda(   3 )=       0.047002   gamma=       0.000496 meV   omega=      3.3700 meV
     lambda( tot )=      -8.813342
     -------------------------------------------------------------------


     Number of (k,k+q) pairs on the Fermi surface:      214 out of      216


     ismear =     1 iq =      33 coord.:   0.00000  0.83333  0.33333 wt:   0.00463
     -------------------------------------------------------------------
     lambda(   1 )=     -26.307108   gamma=      -0.088536 meV   omega=      1.9034 meV
     lambda(   2 )=       0.986765   gamma=       0.018931 meV   omega=      4.5446 meV
     lambda(   3 )=       1.016728   gamma=       0.022174 meV   omega=      4.8454 meV
     lambda( tot )=     -24.303615
     -------------------------------------------------------------------


     Number of (k,k+q) pairs on the Fermi surface:      214 out of      216


     ismear =     1 iq =      34 coord.:   0.00000  0.83333  0.50000 wt:   0.00463
     -------------------------------------------------------------------
     lambda(   1 )=      -0.848025   gamma=      -0.006867 meV   omega=      2.9525 meV
     lambda(   2 )=       0.073372   gamma=       0.000903 meV   omega=      3.6398 meV
     lambda(   3 )=      -0.411966   gamma=      -0.015256 meV   omega=      6.3141 meV
     lambda( tot )=      -1.186619
     -------------------------------------------------------------------


     Number of (k,k+q) pairs on the Fermi surface:      214 out of      216


     ismear =     1 iq =      35 coord.:   0.00000  0.83333  0.66667 wt:   0.00463
     -------------------------------------------------------------------
     lambda(   1 )=       0.000000   gamma=       0.000000 meV   omega=     -4.7033 meV
     lambda(   2 )=       0.000000   gamma=       0.000000 meV   omega=     -4.2534 meV
     lambda(   3 )=      -0.074384   gamma=      -0.002571 meV   omega=      6.1000 meV
     lambda( tot )=      -0.074384
     -------------------------------------------------------------------


     Number of (k,k+q) pairs on the Fermi surface:      214 out of      216


     ismear =     1 iq =      36 coord.:   0.00000  0.83333  0.83333 wt:   0.00463
     -------------------------------------------------------------------
     lambda(   1 )=       0.000000   gamma=       0.000000 meV   omega=     -4.7009 meV
     lambda(   2 )=       0.000000   gamma=       0.000000 meV   omega=     -4.7009 meV
     lambda(   3 )=       1.431380   gamma=       0.027897 meV   omega=      4.5806 meV
     lambda( tot )=       1.431380
     -------------------------------------------------------------------


     Number of (k,k+q) pairs on the Fermi surface:      214 out of      216


     ismear =     1 iq =      37 coord.:   0.16667  0.00000  0.00000 wt:   0.00463
     -------------------------------------------------------------------
     lambda(   1 )=       0.000000   gamma=       0.000000 meV   omega=     -3.4591 meV
     lambda(   2 )=       0.000000   gamma=       0.000000 meV   omega=     -1.6972 meV
     lambda(   3 )=       0.000000   gamma=       0.000000 meV   omega=     -1.6972 meV
     lambda( tot )=       0.000000
     -------------------------------------------------------------------


     Number of (k,k+q) pairs on the Fermi surface:      214 out of      216


     ismear =     1 iq =      38 coord.:   0.16667  0.00000  0.16667 wt:   0.00463
     -------------------------------------------------------------------
     lambda(   1 )=       0.000000   gamma=       0.000000 meV   omega=     -4.7009 meV
     lambda(   2 )=       0.000000   gamma=       0.000000 meV   omega=     -4.7009 meV
     lambda(   3 )=       1.431382   gamma=       0.027897 meV   omega=      4.5806 meV
     lambda( tot )=       1.431382
     -------------------------------------------------------------------


     Number of (k,k+q) pairs on the Fermi surface:      214 out of      216


     ismear =     1 iq =      39 coord.:   0.16667  0.00000  0.33333 wt:   0.00463
     -------------------------------------------------------------------
     lambda(   1 )=       0.000000   gamma=       0.000000 meV   omega=     -4.7033 meV
     lambda(   2 )=       0.000000   gamma=       0.000000 meV   omega=     -4.2534 meV
     lambda(   3 )=      -0.074405   gamma=      -0.002572 meV   omega=      6.1000 meV
     lambda( tot )=      -0.074405
     -------------------------------------------------------------------


     Number of (k,k+q) pairs on the Fermi surface:      214 out of      216


     ismear =     1 iq =      40 coord.:   0.16667  0.00000  0.50000 wt:   0.00463
     -------------------------------------------------------------------
     lambda(   1 )=      -0.848197   gamma=      -0.006868 meV   omega=      2.9525 meV
     lambda(   2 )=       0.073360   gamma=       0.000903 meV   omega=      3.6398 meV
     lambda(   3 )=      -0.411973   gamma=      -0.015257 meV   omega=      6.3141 meV
     lambda( tot )=      -1.186811
     -------------------------------------------------------------------


     Number of (k,k+q) pairs on the Fermi surface:      214 out of      216


     ismear =     1 iq =      41 coord.:   0.16667  0.00000  0.66667 wt:   0.00463
     -------------------------------------------------------------------
     lambda(   1 )=     -26.307899   gamma=      -0.088538 meV   omega=      1.9034 meV
     lambda(   2 )=       0.986748   gamma=       0.018930 meV   omega=      4.5446 meV
     lambda(   3 )=       1.016714   gamma=       0.022174 meV   omega=      4.8454 meV
     lambda( tot )=     -24.304438
     -------------------------------------------------------------------


     Number of (k,k+q) pairs on the Fermi surface:      214 out of      216


     ismear =     1 iq =      42 coord.:   0.16667  0.00000  0.83333 wt:   0.00463
     -------------------------------------------------------------------
     lambda(   1 )=       0.000000   gamma=       0.000000 meV   omega=     -4.8509 meV
     lambda(   2 )=      -8.860260   gamma=      -0.004791 meV   omega=      0.7629 meV
     lambda(   3 )=       0.047022   gamma=       0.000496 meV   omega=      3.3700 meV
     lambda( tot )=      -8.813238
     -------------------------------------------------------------------


     Number of (k,k+q) pairs on the Fermi surface:      214 out of      216


     ismear =     1 iq =      43 coord.:   0.16667  0.16667  0.00000 wt:   0.00463
     -------------------------------------------------------------------
     lambda(   1 )=       0.000000   gamma=       0.000000 meV   omega=     -4.7009 meV
     lambda(   2 )=       0.000000   gamma=       0.000000 meV   omega=     -4.7009 meV
     lambda(   3 )=       1.431384   gamma=       0.027897 meV   omega=      4.5806 meV
     lambda( tot )=       1.431384
     -------------------------------------------------------------------


     Number of (k,k+q) pairs on the Fermi surface:      214 out of      216


     ismear =     1 iq =      44 coord.:   0.16667  0.16667  0.16667 wt:   0.00463
     -------------------------------------------------------------------
     lambda(   1 )=       0.000000   gamma=       0.000000 meV   omega=     -3.4591 meV
     lambda(   2 )=       0.000000   gamma=       0.000000 meV   omega=     -1.6972 meV
     lambda(   3 )=       0.000000   gamma=       0.000000 meV   omega=     -1.6972 meV
     lambda( tot )=       0.000000
     -------------------------------------------------------------------


     Number of (k,k+q) pairs on the Fermi surface:      214 out of      216


     ismear =     1 iq =      45 coord.:   0.16667  0.16667  0.33333 wt:   0.00463
     -------------------------------------------------------------------
     lambda(   1 )=       0.000000   gamma=       0.000000 meV   omega=     -4.8509 meV
     lambda(   2 )=      -8.860194   gamma=      -0.004791 meV   omega=      0.7629 meV
     lambda(   3 )=       0.047005   gamma=       0.000496 meV   omega=      3.3700 meV
     lambda( tot )=      -8.813189
     -------------------------------------------------------------------


     Number of (k,k+q) pairs on the Fermi surface:      214 out of      216


     ismear =     1 iq =      46 coord.:   0.16667  0.16667  0.50000 wt:   0.00463
     -------------------------------------------------------------------
     lambda(   1 )=     -26.307376   gamma=      -0.088536 meV   omega=      1.9034 meV
     lambda(   2 )=       0.986755   gamma=       0.018930 meV   omega=      4.5446 meV
     lambda(   3 )=       1.016691   gamma=       0.022173 meV   omega=      4.8454 meV
     lambda( tot )=     -24.303930
     -------------------------------------------------------------------


     Number of (k,k+q) pairs on the Fermi surface:      214 out of      216


     ismear =     1 iq =      47 coord.:   0.16667  0.16667  0.66667 wt:   0.00463
     -------------------------------------------------------------------
     lambda(   1 )=      -0.848082   gamma=      -0.006867 meV   omega=      2.9525 meV
     lambda(   2 )=       0.073356   gamma=       0.000903 meV   omega=      3.6398 meV
     lambda(   3 )=      -0.411986   gamma=      -0.015257 meV   omega=      6.3141 meV
     lambda( tot )=      -1.186711
     -------------------------------------------------------------------


     Number of (k,k+q) pairs on the Fermi surface:      214 out of      216


     ismear =     1 iq =      48 coord.:   0.16667  0.16667  0.83333 wt:   0.00463
     -------------------------------------------------------------------
     lambda(   1 )=       0.000000   gamma=       0.000000 meV   omega=     -4.7033 meV
     lambda(   2 )=       0.000000   gamma=       0.000000 meV   omega=     -4.2534 meV
     lambda(   3 )=      -0.074391   gamma=      -0.002571 meV   omega=      6.1000 meV
     lambda( tot )=      -0.074391
     -------------------------------------------------------------------


     Number of (k,k+q) pairs on the Fermi surface:      214 out of      216


     ismear =     1 iq =      49 coord.:   0.16667  0.33333  0.00000 wt:   0.00463
     -------------------------------------------------------------------
     lambda(   1 )=       0.000000   gamma=       0.000000 meV   omega=     -4.7033 meV
     lambda(   2 )=       0.000000   gamma=       0.000000 meV   omega=     -4.2534 meV
     lambda(   3 )=      -0.074400   gamma=      -0.002572 meV   omega=      6.1000 meV
     lambda( tot )=      -0.074400
     -------------------------------------------------------------------


     Number of (k,k+q) pairs on the Fermi surface:      214 out of      216


     ismear =     1 iq =      50 coord.:   0.16667  0.33333  0.16667 wt:   0.00463
     -------------------------------------------------------------------
     lambda(   1 )=       0.000000   gamma=       0.000000 meV   omega=     -4.8509 meV
     lambda(   2 )=      -8.860201   gamma=      -0.004791 meV   omega=      0.7629 meV
     lambda(   3 )=       0.047024   gamma=       0.000496 meV   omega=      3.3700 meV
     lambda( tot )=      -8.813178
     -------------------------------------------------------------------


     Number of (k,k+q) pairs on the Fermi surface:      214 out of      216


     ismear =     1 iq =      51 coord.:   0.16667  0.33333  0.33333 wt:   0.00463
     -------------------------------------------------------------------
     lambda(   1 )=       0.000000   gamma=       0.000000 meV   omega=     -4.7033 meV
     lambda(   2 )=       0.000000   gamma=       0.000000 meV   omega=     -4.2534 meV
     lambda(   3 )=      -0.074385   gamma=      -0.002571 meV   omega=      6.1000 meV
     lambda( tot )=      -0.074385
     -------------------------------------------------------------------


     Number of (k,k+q) pairs on the Fermi surface:      214 out of      216


     ismear =     1 iq =      52 coord.:   0.16667  0.33333  0.50000 wt:   0.00463
     -------------------------------------------------------------------
     lambda(   1 )=       0.000000   gamma=       0.000000 meV   omega=     -1.3773 meV
     lambda(   2 )=     127.825283   gamma=       0.052403 meV   omega=      0.6643 meV
     lambda(   3 )=      -0.057437   gamma=      -0.002922 meV   omega=      7.4004 meV
     lambda( tot )=     127.767846
     -------------------------------------------------------------------


     Number of (k,k+q) pairs on the Fermi surface:      214 out of      216


     ismear =     1 iq =      53 coord.:   0.16667  0.33333  0.66667 wt:   0.00463
     -------------------------------------------------------------------
     lambda(   1 )=      -2.112066   gamma=      -0.033311 meV   omega=      4.1206 meV
     lambda(   2 )=      -0.079367   gamma=      -0.002972 meV   omega=      6.3489 meV
     lambda(   3 )=      -0.552844   gamma=      -0.022465 meV   omega=      6.6141 meV
     lambda( tot )=      -2.744276
     -------------------------------------------------------------------


     Number of (k,k+q) pairs on the Fermi surface:      214 out of      216


     ismear =     1 iq =      54 coord.:   0.16667  0.33333  0.83333 wt:   0.00463
     -------------------------------------------------------------------
     lambda(   1 )=       0.000000   gamma=       0.000000 meV   omega=     -1.3773 meV
     lambda(   2 )=     127.832473   gamma=       0.052405 meV   omega=      0.6643 meV
     lambda(   3 )=      -0.057438   gamma=      -0.002922 meV   omega=      7.4004 meV
     lambda( tot )=     127.775035
     -------------------------------------------------------------------


     Number of (k,k+q) pairs on the Fermi surface:      214 out of      216


     ismear =     1 iq =      55 coord.:   0.16667  0.50000  0.00000 wt:   0.00463
     -------------------------------------------------------------------
     lambda(   1 )=      -0.848153   gamma=      -0.006868 meV   omega=      2.9525 meV
     lambda(   2 )=       0.073348   gamma=       0.000903 meV   omega=      3.6398 meV
     lambda(   3 )=      -0.411962   gamma=      -0.015256 meV   omega=      6.3141 meV
     lambda( tot )=      -1.186767
     -------------------------------------------------------------------


     Number of (k,k+q) pairs on the Fermi surface:      214 out of      216


     ismear =     1 iq =      56 coord.:   0.16667  0.50000  0.16667 wt:   0.00463
     -------------------------------------------------------------------
     lambda(   1 )=     -26.307195   gamma=      -0.088536 meV   omega=      1.9034 meV
     lambda(   2 )=       0.986760   gamma=       0.018931 meV   omega=      4.5446 meV
     lambda(   3 )=       1.016731   gamma=       0.022174 meV   omega=      4.8454 meV
     lambda( tot )=     -24.303704
     -------------------------------------------------------------------


     Number of (k,k+q) pairs on the Fermi surface:      214 out of      216


     ismear =     1 iq =      57 coord.:   0.16667  0.50000  0.33333 wt:   0.00463
     -------------------------------------------------------------------
     lambda(   1 )=       0.000000   gamma=       0.000000 meV   omega=     -1.3773 meV
     lambda(   2 )=     127.824784   gamma=       0.052402 meV   omega=      0.6643 meV
     lambda(   3 )=      -0.057431   gamma=      -0.002922 meV   omega=      7.4004 meV
     lambda( tot )=     127.767353
     -------------------------------------------------------------------


     Number of (k,k+q) pairs on the Fermi surface:      214 out of      216


     ismear =     1 iq =      58 coord.:   0.16667  0.50000  0.50000 wt:   0.00463
     -------------------------------------------------------------------
     lambda(   1 )=       0.000000   gamma=       0.000000 meV   omega=     -2.1784 meV
     lambda(   2 )=       0.000000   gamma=       0.000000 meV   omega=     -0.9745 meV
     lambda(   3 )=       0.026953   gamma=       0.001969 meV   omega=      8.8679 meV
     lambda( tot )=       0.026953
     -------------------------------------------------------------------


     Number of (k,k+q) pairs on the Fermi surface:      214 out of      216


     ismear =     1 iq =      59 coord.:   0.16667  0.50000  0.66667 wt:   0.00463
     -------------------------------------------------------------------
     lambda(   1 )=       4.391177   gamma=       0.040515 meV   omega=      3.1516 meV
     lambda(   2 )=      -1.082632   gamma=      -0.021290 meV   omega=      4.6011 meV
     lambda(   3 )=      -0.416125   gamma=      -0.029179 meV   omega=      8.6883 meV
     lambda( tot )=       2.892420
     -------------------------------------------------------------------


     Number of (k,k+q) pairs on the Fermi surface:      214 out of      216


     ismear =     1 iq =      60 coord.:   0.16667  0.50000  0.83333 wt:   0.00463
     -------------------------------------------------------------------
     lambda(   1 )=      -2.112070   gamma=      -0.033311 meV   omega=      4.1206 meV
     lambda(   2 )=      -0.079366   gamma=      -0.002972 meV   omega=      6.3489 meV
     lambda(   3 )=      -0.552825   gamma=      -0.022464 meV   omega=      6.6141 meV
     lambda( tot )=      -2.744262
     -------------------------------------------------------------------


     Number of (k,k+q) pairs on the Fermi surface:      214 out of      216


     ismear =     1 iq =      61 coord.:   0.16667  0.66667  0.00000 wt:   0.00463
     -------------------------------------------------------------------
     lambda(   1 )=     -26.307838   gamma=      -0.088538 meV   omega=      1.9034 meV
     lambda(   2 )=       0.986749   gamma=       0.018930 meV   omega=      4.5446 meV
     lambda(   3 )=       1.016733   gamma=       0.022174 meV   omega=      4.8454 meV
     lambda( tot )=     -24.304356
     -------------------------------------------------------------------


     Number of (k,k+q) pairs on the Fermi surface:      214 out of      216


     ismear =     1 iq =      62 coord.:   0.16667  0.66667  0.16667 wt:   0.00463
     -------------------------------------------------------------------
     lambda(   1 )=      -0.848043   gamma=      -0.006867 meV   omega=      2.9525 meV
     lambda(   2 )=       0.073343   gamma=       0.000903 meV   omega=      3.6398 meV
     lambda(   3 )=      -0.411968   gamma=      -0.015256 meV   omega=      6.3141 meV
     lambda( tot )=      -1.186669
     -------------------------------------------------------------------


     Number of (k,k+q) pairs on the Fermi surface:      214 out of      216


     ismear =     1 iq =      63 coord.:   0.16667  0.66667  0.33333 wt:   0.00463
     -------------------------------------------------------------------
     lambda(   1 )=      -2.112075   gamma=      -0.033311 meV   omega=      4.1206 meV
     lambda(   2 )=      -0.079365   gamma=      -0.002972 meV   omega=      6.3489 meV
     lambda(   3 )=      -0.552834   gamma=      -0.022465 meV   omega=      6.6141 meV
     lambda( tot )=      -2.744274
     -------------------------------------------------------------------


     Number of (k,k+q) pairs on the Fermi surface:      214 out of      216


     ismear =     1 iq =      64 coord.:   0.16667  0.66667  0.50000 wt:   0.00463
     -------------------------------------------------------------------
     lambda(   1 )=       4.391186   gamma=       0.040515 meV   omega=      3.1516 meV
     lambda(   2 )=      -1.082636   gamma=      -0.021290 meV   omega=      4.6011 meV
     lambda(   3 )=      -0.416126   gamma=      -0.029179 meV   omega=      8.6883 meV
     lambda( tot )=       2.892424
     -------------------------------------------------------------------


     Number of (k,k+q) pairs on the Fermi surface:      214 out of      216


     ismear =     1 iq =      65 coord.:   0.16667  0.66667  0.66667 wt:   0.00463
     -------------------------------------------------------------------
     lambda(   1 )=       0.000000   gamma=       0.000000 meV   omega=     -2.1784 meV
     lambda(   2 )=       0.000000   gamma=       0.000000 meV   omega=     -0.9745 meV
     lambda(   3 )=       0.026956   gamma=       0.001969 meV   omega=      8.8679 meV
     lambda( tot )=       0.026956
     -------------------------------------------------------------------


     Number of (k,k+q) pairs on the Fermi surface:      214 out of      216


     ismear =     1 iq =      66 coord.:   0.16667  0.66667  0.83333 wt:   0.00463
     -------------------------------------------------------------------
     lambda(   1 )=       0.000000   gamma=       0.000000 meV   omega=     -1.3773 meV
     lambda(   2 )=     127.821423   gamma=       0.052401 meV   omega=      0.6643 meV
     lambda(   3 )=      -0.057434   gamma=      -0.002922 meV   omega=      7.4004 meV
     lambda( tot )=     127.763989
     -------------------------------------------------------------------


     Number of (k,k+q) pairs on the Fermi surface:      214 out of      216


     ismear =     1 iq =      67 coord.:   0.16667  0.83333  0.00000 wt:   0.00463
     -------------------------------------------------------------------
     lambda(   1 )=       0.000000   gamma=       0.000000 meV   omega=     -4.8509 meV
     lambda(   2 )=      -8.860264   gamma=      -0.004791 meV   omega=      0.7629 meV
     lambda(   3 )=       0.047044   gamma=       0.000496 meV   omega=      3.3700 meV
     lambda( tot )=      -8.813220
     -------------------------------------------------------------------


     Number of (k,k+q) pairs on the Fermi surface:      214 out of      216


     ismear =     1 iq =      68 coord.:   0.16667  0.83333  0.16667 wt:   0.00463
     -------------------------------------------------------------------
     lambda(   1 )=       0.000000   gamma=       0.000000 meV   omega=     -4.7033 meV
     lambda(   2 )=       0.000000   gamma=       0.000000 meV   omega=     -4.2534 meV
     lambda(   3 )=      -0.074386   gamma=      -0.002571 meV   omega=      6.1000 meV
     lambda( tot )=      -0.074386
     -------------------------------------------------------------------


     Number of (k,k+q) pairs on the Fermi surface:      214 out of      216


     ismear =     1 iq =      69 coord.:   0.16667  0.83333  0.33333 wt:   0.00463
     -------------------------------------------------------------------
     lambda(   1 )=       0.000000   gamma=       0.000000 meV   omega=     -1.3773 meV
     lambda(   2 )=     127.832270   gamma=       0.052405 meV   omega=      0.6643 meV
     lambda(   3 )=      -0.057439   gamma=      -0.002922 meV   omega=      7.4004 meV
     lambda( tot )=     127.774831
     -------------------------------------------------------------------


     Number of (k,k+q) pairs on the Fermi surface:      214 out of      216


     ismear =     1 iq =      70 coord.:   0.16667  0.83333  0.50000 wt:   0.00463
     -------------------------------------------------------------------
     lambda(   1 )=      -2.112062   gamma=      -0.033311 meV   omega=      4.1206 meV
     lambda(   2 )=      -0.079366   gamma=      -0.002972 meV   omega=      6.3489 meV
     lambda(   3 )=      -0.552829   gamma=      -0.022464 meV   omega=      6.6141 meV
     lambda( tot )=      -2.744257
     -------------------------------------------------------------------


     Number of (k,k+q) pairs on the Fermi surface:      214 out of      216


     ismear =     1 iq =      71 coord.:   0.16667  0.83333  0.66667 wt:   0.00463
     -------------------------------------------------------------------
     lambda(   1 )=       0.000000   gamma=       0.000000 meV   omega=     -1.3773 meV
     lambda(   2 )=     127.822165   gamma=       0.052401 meV   omega=      0.6643 meV
     lambda(   3 )=      -0.057436   gamma=      -0.002922 meV   omega=      7.4004 meV
     lambda( tot )=     127.764729
     -------------------------------------------------------------------


     Number of (k,k+q) pairs on the Fermi surface:      214 out of      216


     ismear =     1 iq =      72 coord.:   0.16667  0.83333  0.83333 wt:   0.00463
     -------------------------------------------------------------------
     lambda(   1 )=       0.000000   gamma=       0.000000 meV   omega=     -4.7033 meV
     lambda(   2 )=       0.000000   gamma=       0.000000 meV   omega=     -4.2534 meV
     lambda(   3 )=      -0.074401   gamma=      -0.002572 meV   omega=      6.1000 meV
     lambda( tot )=      -0.074401
     -------------------------------------------------------------------


     Number of (k,k+q) pairs on the Fermi surface:      214 out of      216


     ismear =     1 iq =      73 coord.:   0.33333  0.00000  0.00000 wt:   0.00463
     -------------------------------------------------------------------
     lambda(   1 )=       0.000000   gamma=       0.000000 meV   omega=     -3.3764 meV
     lambda(   2 )=       0.210940   gamma=       0.001658 meV   omega=      2.9086 meV
     lambda(   3 )=       0.210936   gamma=       0.001658 meV   omega=      2.9086 meV
     lambda( tot )=       0.421876
     -------------------------------------------------------------------


     Number of (k,k+q) pairs on the Fermi surface:      214 out of      216


     ismear =     1 iq =      74 coord.:   0.33333  0.00000  0.16667 wt:   0.00463
     -------------------------------------------------------------------
     lambda(   1 )=       0.000000   gamma=       0.000000 meV   omega=     -4.7033 meV
     lambda(   2 )=       0.000000   gamma=       0.000000 meV   omega=     -4.2534 meV
     lambda(   3 )=      -0.074401   gamma=      -0.002572 meV   omega=      6.1000 meV
     lambda( tot )=      -0.074401
     -------------------------------------------------------------------


     Number of (k,k+q) pairs on the Fermi surface:      214 out of      216


     ismear =     1 iq =      75 coord.:   0.33333  0.00000  0.33333 wt:   0.00463
     -------------------------------------------------------------------
     lambda(   1 )=       0.000000   gamma=       0.000000 meV   omega=     -5.3620 meV
     lambda(   2 )=       0.000000   gamma=       0.000000 meV   omega=     -5.3620 meV
     lambda(   3 )=       0.097143   gamma=       0.006194 meV   omega=      8.2853 meV
     lambda( tot )=       0.097143
     -------------------------------------------------------------------


     Number of (k,k+q) pairs on the Fermi surface:      214 out of      216


     ismear =     1 iq =      76 coord.:   0.33333  0.00000  0.50000 wt:   0.00463
     -------------------------------------------------------------------
     lambda(   1 )=       0.000000   gamma=       0.000000 meV   omega=     -2.1784 meV
     lambda(   2 )=       0.000000   gamma=       0.000000 meV   omega=     -0.9745 meV
     lambda(   3 )=       0.026951   gamma=       0.001969 meV   omega=      8.8679 meV
     lambda( tot )=       0.026951
     -------------------------------------------------------------------


     Number of (k,k+q) pairs on the Fermi surface:      214 out of      216


     ismear =     1 iq =      77 coord.:   0.33333  0.00000  0.66667 wt:   0.00463
     -------------------------------------------------------------------
     lambda(   1 )=       0.219237   gamma=       0.004263 meV   omega=      4.5752 meV
     lambda(   2 )=       0.058560   gamma=       0.001625 meV   omega=      5.4661 meV
     lambda(   3 )=       0.130985   gamma=       0.006111 meV   omega=      7.0868 meV
     lambda( tot )=       0.408782
     -------------------------------------------------------------------


     Number of (k,k+q) pairs on the Fermi surface:      214 out of      216


     ismear =     1 iq =      78 coord.:   0.33333  0.00000  0.83333 wt:   0.00463
     -------------------------------------------------------------------
     lambda(   1 )=     -26.307085   gamma=      -0.088535 meV   omega=      1.9034 meV
     lambda(   2 )=       0.986766   gamma=       0.018931 meV   omega=      4.5446 meV
     lambda(   3 )=       1.016732   gamma=       0.022174 meV   omega=      4.8454 meV
     lambda( tot )=     -24.303587
     -------------------------------------------------------------------


     Number of (k,k+q) pairs on the Fermi surface:      214 out of      216


     ismear =     1 iq =      79 coord.:   0.33333  0.16667  0.00000 wt:   0.00463
     -------------------------------------------------------------------
     lambda(   1 )=       0.000000   gamma=       0.000000 meV   omega=     -4.7033 meV
     lambda(   2 )=       0.000000   gamma=       0.000000 meV   omega=     -4.2534 meV
     lambda(   3 )=      -0.074400   gamma=      -0.002572 meV   omega=      6.1000 meV
     lambda( tot )=      -0.074400
     -------------------------------------------------------------------


     Number of (k,k+q) pairs on the Fermi surface:      214 out of      216


     ismear =     1 iq =      80 coord.:   0.33333  0.16667  0.16667 wt:   0.00463
     -------------------------------------------------------------------
     lambda(   1 )=       0.000000   gamma=       0.000000 meV   omega=     -4.8509 meV
     lambda(   2 )=      -8.860111   gamma=      -0.004791 meV   omega=      0.7629 meV
     lambda(   3 )=       0.047031   gamma=       0.000496 meV   omega=      3.3700 meV
     lambda( tot )=      -8.813080
     -------------------------------------------------------------------


     Number of (k,k+q) pairs on the Fermi surface:      214 out of      216


     ismear =     1 iq =      81 coord.:   0.33333  0.16667  0.33333 wt:   0.00463
     -------------------------------------------------------------------
     lambda(   1 )=       0.000000   gamma=       0.000000 meV   omega=     -4.7033 meV
     lambda(   2 )=       0.000000   gamma=       0.000000 meV   omega=     -4.2534 meV
     lambda(   3 )=      -0.074382   gamma=      -0.002571 meV   omega=      6.1000 meV
     lambda( tot )=      -0.074382
     -------------------------------------------------------------------


     Number of (k,k+q) pairs on the Fermi surface:      214 out of      216


     ismear =     1 iq =      82 coord.:   0.33333  0.16667  0.50000 wt:   0.00463
     -------------------------------------------------------------------
     lambda(   1 )=       0.000000   gamma=       0.000000 meV   omega=     -1.3773 meV
     lambda(   2 )=     127.823740   gamma=       0.052402 meV   omega=      0.6643 meV
     lambda(   3 )=      -0.057437   gamma=      -0.002922 meV   omega=      7.4004 meV
     lambda( tot )=     127.766303
     -------------------------------------------------------------------


     Number of (k,k+q) pairs on the Fermi surface:      214 out of      216


     ismear =     1 iq =      83 coord.:   0.33333  0.16667  0.66667 wt:   0.00463
     -------------------------------------------------------------------
     lambda(   1 )=      -2.112068   gamma=      -0.033311 meV   omega=      4.1206 meV
     lambda(   2 )=      -0.079366   gamma=      -0.002972 meV   omega=      6.3489 meV
     lambda(   3 )=      -0.552843   gamma=      -0.022465 meV   omega=      6.6141 meV
     lambda( tot )=      -2.744278
     -------------------------------------------------------------------


     Number of (k,k+q) pairs on the Fermi surface:      214 out of      216


     ismear =     1 iq =      84 coord.:   0.33333  0.16667  0.83333 wt:   0.00463
     -------------------------------------------------------------------
     lambda(   1 )=       0.000000   gamma=       0.000000 meV   omega=     -1.3773 meV
     lambda(   2 )=     127.832374   gamma=       0.052405 meV   omega=      0.6643 meV
     lambda(   3 )=      -0.057438   gamma=      -0.002922 meV   omega=      7.4004 meV
     lambda( tot )=     127.774936
     -------------------------------------------------------------------


     Number of (k,k+q) pairs on the Fermi surface:      214 out of      216


     ismear =     1 iq =      85 coord.:   0.33333  0.33333  0.00000 wt:   0.00463
     -------------------------------------------------------------------
     lambda(   1 )=       0.000000   gamma=       0.000000 meV   omega=     -5.3620 meV
     lambda(   2 )=       0.000000   gamma=       0.000000 meV   omega=     -5.3620 meV
     lambda(   3 )=       0.097142   gamma=       0.006194 meV   omega=      8.2853 meV
     lambda( tot )=       0.097142
     -------------------------------------------------------------------


     Number of (k,k+q) pairs on the Fermi surface:      214 out of      216


     ismear =     1 iq =      86 coord.:   0.33333  0.33333  0.16667 wt:   0.00463
     -------------------------------------------------------------------
     lambda(   1 )=       0.000000   gamma=       0.000000 meV   omega=     -4.7033 meV
     lambda(   2 )=       0.000000   gamma=       0.000000 meV   omega=     -4.2534 meV
     lambda(   3 )=      -0.074383   gamma=      -0.002571 meV   omega=      6.1000 meV
     lambda( tot )=      -0.074383
     -------------------------------------------------------------------


     Number of (k,k+q) pairs on the Fermi surface:      214 out of      216


     ismear =     1 iq =      87 coord.:   0.33333  0.33333  0.33333 wt:   0.00463
     -------------------------------------------------------------------
     lambda(   1 )=       0.000000   gamma=       0.000000 meV   omega=     -3.3764 meV
     lambda(   2 )=       0.210937   gamma=       0.001658 meV   omega=      2.9086 meV
     lambda(   3 )=       0.210938   gamma=       0.001658 meV   omega=      2.9086 meV
     lambda( tot )=       0.421875
     -------------------------------------------------------------------


     Number of (k,k+q) pairs on the Fermi surface:      214 out of      216


     ismear =     1 iq =      88 coord.:   0.33333  0.33333  0.50000 wt:   0.00463
     -------------------------------------------------------------------
     lambda(   1 )=     -26.307800   gamma=      -0.088538 meV   omega=      1.9034 meV
     lambda(   2 )=       0.986753   gamma=       0.018930 meV   omega=      4.5446 meV
     lambda(   3 )=       1.016730   gamma=       0.022174 meV   omega=      4.8454 meV
     lambda( tot )=     -24.304317
     -------------------------------------------------------------------


     Number of (k,k+q) pairs on the Fermi surface:      214 out of      216


     ismear =     1 iq =      89 coord.:   0.33333  0.33333  0.66667 wt:   0.00463
     -------------------------------------------------------------------
     lambda(   1 )=       0.219239   gamma=       0.004263 meV   omega=      4.5752 meV
     lambda(   2 )=       0.058561   gamma=       0.001625 meV   omega=      5.4661 meV
     lambda(   3 )=       0.130979   gamma=       0.006110 meV   omega=      7.0868 meV
     lambda( tot )=       0.408779
     -------------------------------------------------------------------


     Number of (k,k+q) pairs on the Fermi surface:      214 out of      216


     ismear =     1 iq =      90 coord.:   0.33333  0.33333  0.83333 wt:   0.00463
     -------------------------------------------------------------------
     lambda(   1 )=       0.000000   gamma=       0.000000 meV   omega=     -2.1784 meV
     lambda(   2 )=       0.000000   gamma=       0.000000 meV   omega=     -0.9745 meV
     lambda(   3 )=       0.026948   gamma=       0.001968 meV   omega=      8.8679 meV
     lambda( tot )=       0.026948
     -------------------------------------------------------------------


     Number of (k,k+q) pairs on the Fermi surface:      214 out of      216


     ismear =     1 iq =      91 coord.:   0.33333  0.50000  0.00000 wt:   0.00463
     -------------------------------------------------------------------
     lambda(   1 )=       0.000000   gamma=       0.000000 meV   omega=     -2.1784 meV
     lambda(   2 )=       0.000000   gamma=       0.000000 meV   omega=     -0.9745 meV
     lambda(   3 )=       0.026953   gamma=       0.001969 meV   omega=      8.8679 meV
     lambda( tot )=       0.026953
     -------------------------------------------------------------------


     Number of (k,k+q) pairs on the Fermi surface:      214 out of      216


     ismear =     1 iq =      92 coord.:   0.33333  0.50000  0.16667 wt:   0.00463
     -------------------------------------------------------------------
     lambda(   1 )=       0.000000   gamma=       0.000000 meV   omega=     -1.3773 meV
     lambda(   2 )=     127.824348   gamma=       0.052402 meV   omega=      0.6643 meV
     lambda(   3 )=      -0.057432   gamma=      -0.002922 meV   omega=      7.4004 meV
     lambda( tot )=     127.766916
     -------------------------------------------------------------------


     Number of (k,k+q) pairs on the Fermi surface:      214 out of      216


     ismear =     1 iq =      93 coord.:   0.33333  0.50000  0.33333 wt:   0.00463
     -------------------------------------------------------------------
     lambda(   1 )=     -26.308044   gamma=      -0.088539 meV   omega=      1.9034 meV
     lambda(   2 )=       0.986759   gamma=       0.018931 meV   omega=      4.5446 meV
     lambda(   3 )=       1.016712   gamma=       0.022173 meV   omega=      4.8454 meV
     lambda( tot )=     -24.304573
     -------------------------------------------------------------------


     Number of (k,k+q) pairs on the Fermi surface:      214 out of      216


     ismear =     1 iq =      94 coord.:   0.33333  0.50000  0.50000 wt:   0.00463
     -------------------------------------------------------------------
     lambda(   1 )=      -0.848047   gamma=      -0.006867 meV   omega=      2.9525 meV
     lambda(   2 )=       0.073356   gamma=       0.000903 meV   omega=      3.6398 meV
     lambda(   3 )=      -0.411978   gamma=      -0.015257 meV   omega=      6.3141 meV
     lambda( tot )=      -1.186669
     -------------------------------------------------------------------


     Number of (k,k+q) pairs on the Fermi surface:      214 out of      216


     ismear =     1 iq =      95 coord.:   0.33333  0.50000  0.66667 wt:   0.00463
     -------------------------------------------------------------------
     lambda(   1 )=      -2.112068   gamma=      -0.033311 meV   omega=      4.1206 meV
     lambda(   2 )=      -0.079368   gamma=      -0.002972 meV   omega=      6.3489 meV
     lambda(   3 )=      -0.552830   gamma=      -0.022465 meV   omega=      6.6141 meV
     lambda( tot )=      -2.744267
     -------------------------------------------------------------------


     Number of (k,k+q) pairs on the Fermi surface:      214 out of      216


     ismear =     1 iq =      96 coord.:   0.33333  0.50000  0.83333 wt:   0.00463
     -------------------------------------------------------------------
     lambda(   1 )=       4.391251   gamma=       0.040516 meV   omega=      3.1516 meV
     lambda(   2 )=      -1.082644   gamma=      -0.021290 meV   omega=      4.6011 meV
     lambda(   3 )=      -0.416127   gamma=      -0.029179 meV   omega=      8.6883 meV
     lambda( tot )=       2.892480
     -------------------------------------------------------------------


     Number of (k,k+q) pairs on the Fermi surface:      214 out of      216


     ismear =     1 iq =      97 coord.:   0.33333  0.66667  0.00000 wt:   0.00463
     -------------------------------------------------------------------
     lambda(   1 )=       0.219233   gamma=       0.004263 meV   omega=      4.5752 meV
     lambda(   2 )=       0.058559   gamma=       0.001625 meV   omega=      5.4661 meV
     lambda(   3 )=       0.130989   gamma=       0.006111 meV   omega=      7.0868 meV
     lambda( tot )=       0.408781
     -------------------------------------------------------------------


     Number of (k,k+q) pairs on the Fermi surface:      214 out of      216


     ismear =     1 iq =      98 coord.:   0.33333  0.66667  0.16667 wt:   0.00463
     -------------------------------------------------------------------
     lambda(   1 )=      -2.112074   gamma=      -0.033311 meV   omega=      4.1206 meV
     lambda(   2 )=      -0.079361   gamma=      -0.002972 meV   omega=      6.3489 meV
     lambda(   3 )=      -0.552825   gamma=      -0.022464 meV   omega=      6.6141 meV
     lambda( tot )=      -2.744261
     -------------------------------------------------------------------


     Number of (k,k+q) pairs on the Fermi surface:      214 out of      216


     ismear =     1 iq =      99 coord.:   0.33333  0.66667  0.33333 wt:   0.00463
     -------------------------------------------------------------------
     lambda(   1 )=       0.219246   gamma=       0.004263 meV   omega=      4.5752 meV
     lambda(   2 )=       0.058561   gamma=       0.001625 meV   omega=      5.4661 meV
     lambda(   3 )=       0.130987   gamma=       0.006111 meV   omega=      7.0868 meV
     lambda( tot )=       0.408794
     -------------------------------------------------------------------


     Number of (k,k+q) pairs on the Fermi surface:      214 out of      216


     ismear =     1 iq =     100 coord.:   0.33333  0.66667  0.50000 wt:   0.00463
     -------------------------------------------------------------------
     lambda(   1 )=      -2.112070   gamma=      -0.033311 meV   omega=      4.1206 meV
     lambda(   2 )=      -0.079367   gamma=      -0.002972 meV   omega=      6.3489 meV
     lambda(   3 )=      -0.552835   gamma=      -0.022465 meV   omega=      6.6141 meV
     lambda( tot )=      -2.744272
     -------------------------------------------------------------------


     Number of (k,k+q) pairs on the Fermi surface:      214 out of      216


     ismear =     1 iq =     101 coord.:   0.33333  0.66667  0.66667 wt:   0.00463
     -------------------------------------------------------------------
     lambda(   1 )=       0.219227   gamma=       0.004263 meV   omega=      4.5752 meV
     lambda(   2 )=       0.058558   gamma=       0.001625 meV   omega=      5.4661 meV
     lambda(   3 )=       0.130983   gamma=       0.006111 meV   omega=      7.0868 meV
     lambda( tot )=       0.408768
     -------------------------------------------------------------------


     Number of (k,k+q) pairs on the Fermi surface:      214 out of      216


     ismear =     1 iq =     102 coord.:   0.33333  0.66667  0.83333 wt:   0.00463
     -------------------------------------------------------------------
     lambda(   1 )=      -2.112071   gamma=      -0.033311 meV   omega=      4.1206 meV
     lambda(   2 )=      -0.079369   gamma=      -0.002972 meV   omega=      6.3489 meV
     lambda(   3 )=      -0.552825   gamma=      -0.022464 meV   omega=      6.6141 meV
     lambda( tot )=      -2.744265
     -------------------------------------------------------------------


     Number of (k,k+q) pairs on the Fermi surface:      214 out of      216


     ismear =     1 iq =     103 coord.:   0.33333  0.83333  0.00000 wt:   0.00463
     -------------------------------------------------------------------
     lambda(   1 )=     -26.307239   gamma=      -0.088536 meV   omega=      1.9034 meV
     lambda(   2 )=       0.986769   gamma=       0.018931 meV   omega=      4.5446 meV
     lambda(   3 )=       1.016722   gamma=       0.022174 meV   omega=      4.8454 meV
     lambda( tot )=     -24.303748
     -------------------------------------------------------------------


     Number of (k,k+q) pairs on the Fermi surface:      214 out of      216


     ismear =     1 iq =     104 coord.:   0.33333  0.83333  0.16667 wt:   0.00463
     -------------------------------------------------------------------
     lambda(   1 )=       0.000000   gamma=       0.000000 meV   omega=     -1.3773 meV
     lambda(   2 )=     127.826143   gamma=       0.052403 meV   omega=      0.6643 meV
     lambda(   3 )=      -0.057437   gamma=      -0.002922 meV   omega=      7.4004 meV
     lambda( tot )=     127.768706
     -------------------------------------------------------------------


     Number of (k,k+q) pairs on the Fermi surface:      214 out of      216


     ismear =     1 iq =     105 coord.:   0.33333  0.83333  0.33333 wt:   0.00463
     -------------------------------------------------------------------
     lambda(   1 )=       0.000000   gamma=       0.000000 meV   omega=     -2.1784 meV
     lambda(   2 )=       0.000000   gamma=       0.000000 meV   omega=     -0.9745 meV
     lambda(   3 )=       0.026955   gamma=       0.001969 meV   omega=      8.8679 meV
     lambda( tot )=       0.026955
     -------------------------------------------------------------------


     Number of (k,k+q) pairs on the Fermi surface:      214 out of      216


     ismear =     1 iq =     106 coord.:   0.33333  0.83333  0.50000 wt:   0.00463
     -------------------------------------------------------------------
     lambda(   1 )=       4.391248   gamma=       0.040516 meV   omega=      3.1516 meV
[...]
      203        3      0.9376   -693.2092   3020.1693      3.4826     -0.7129
      204        3      2.5061    119.9248   3549.6791    -11.5062     -1.0869
      205        3      4.2119    540.8247   3677.5982     -5.4681     -1.1829
      206        3      0.9376   -693.2092   3020.1693      3.4826     -0.7129
      207        3     -0.1771  -1010.0431   2999.5743      3.5066     -0.7148
      208        3      0.9376   -693.2093   3020.1694      3.4826     -0.7129
      209        3      4.2119    540.8250   3677.6002     -5.4682     -1.1829
      210        3      3.9714    600.8633   3869.3778     -6.5435     -1.1528
      211        3      5.4468   1097.9177   2346.8458      8.3663     -0.8805
      212        3      4.2119    540.8254   3677.6019     -5.4682     -1.1829
      213        3      3.1191    522.8229   4270.5952     -3.9063     -1.2560
      214        3      2.5061    119.9244   3549.6782    -11.5063     -1.0869
      215        3      3.9714    600.8633   3869.3777     -6.5435     -1.1528
      216        3      6.4212   1046.4161    147.6364      0.8314      0.2028
  
        1        4      6.8737      0.0000      0.0000      1.0000      0.0000
        2        4      6.4212   1046.4159    147.6363      0.8314      0.2028
        3        4      5.4492   1633.2084   1072.1791      0.9528      0.0496
        4        4      4.9298   1455.6631   1227.0588      1.1005     -0.0913
        5        4      5.4492   1633.2102   1072.1820      0.9528      0.0496
        6        4      6.4212   1046.4096    147.6339      0.8314      0.2028
        7        4      6.4212   1046.4159    147.6363      0.8314      0.2028
        8        4      5.4468   1097.9132   2346.8360      8.3660     -0.8805
        9        4      4.6034   1154.2378   3002.2891    -12.3447     -1.0810
       10        4      3.9347   1436.5760   3706.7124     -4.7392     -1.2110
       11        4      4.9592   1609.6554   1252.5945      1.0500     -0.0476
       12        4      6.2108    891.2111    180.8723      0.8727      0.1459
       13        4      5.4492   1633.2084   1072.1790      0.9528      0.0496
       14        4      4.6034   1154.2376   3002.2885    -12.3447     -1.0810
       15        4      2.4513   -339.0705   1999.7426      1.3161     -0.2402
       16        4      1.9112   -359.0138   2511.1050      1.5844     -0.3688
       17        4      3.1818    569.9422   4951.0005     -1.3793     -1.7250
       18        4      4.9592   1609.6493   1252.5953      1.0500     -0.0476
       19        4      4.9298   1455.6633   1227.0593      1.1005     -0.0913
       20        4      3.9347   1436.5759   3706.7130     -4.7392     -1.2110
       21        4      1.9112   -359.0142   2511.1054      1.5844     -0.3688
       22        4      0.8828   -116.0064    359.4778      0.8230      0.2150
       23        4      1.9112   -359.0141   2511.0974      1.5844     -0.3688
       24        4      3.9347   1436.5654   3706.6979     -4.7393     -1.2110
       25        4      5.4492   1633.2103   1072.1830      0.9528      0.0496
       26        4      4.9592   1609.6561   1252.5968      1.0500     -0.0476
       27        4      3.1818    569.9416   4951.0042     -1.3793     -1.7250
       28        4      1.9112   -359.0145   2511.0984      1.5844     -0.3688
       29        4      2.4513   -339.0731   1999.7421      1.3161     -0.2402
       30        4      4.6034   1154.2408   3002.2967    -12.3444     -1.0810
       31        4      6.4212   1046.4097    147.6339      0.8314      0.2028
       32        4      6.2108    891.2112    180.8725      0.8727      0.1459
       33        4      4.9592   1609.6498   1252.5954      1.0500     -0.0476
       34        4      3.9347   1436.5663   3706.6991     -4.7393     -1.2110
       35        4      4.6034   1154.2410   3002.2978    -12.3443     -1.0810
       36        4      5.4468   1097.9091   2346.8258      8.3657     -0.8805
       37        4      6.4212   1046.4159    147.6363      0.8314      0.2028
       38        4      5.4468   1097.9195   2346.8506      8.3664     -0.8805
       39        4      4.6034   1154.2378   3002.2891    -12.3447     -1.0810
       40        4      3.9347   1436.5761   3706.7127     -4.7392     -1.2110
       41        4      4.9592   1609.6558   1252.5953      1.0500     -0.0476
       42        4      6.2108    891.2111    180.8724      0.8727      0.1459
       43        4      5.4468   1097.9122   2346.8334      8.3659     -0.8805
       44        4      6.4212   1046.4095    147.6339      0.8314      0.2028
       45        4      6.2108    891.2112    180.8725      0.8727      0.1459
       46        4      4.9592   1609.6492   1252.5951      1.0500     -0.0476
       47        4      3.9347   1436.5659   3706.6973     -4.7394     -1.2110
       48        4      4.6034   1154.2408   3002.2972    -12.3444     -1.0810
       49        4      4.6034   1154.2378   3002.2884    -12.3448     -1.0810
       50        4      6.2108    891.2112    180.8725      0.8727      0.1459
       51        4      4.6034   1154.2408   3002.2970    -12.3444     -1.0810
       52        4      3.6085    924.7503   4819.9939     -1.1558     -1.8652
       53        4      2.6144   1167.3970   4268.7839     -3.5235     -1.2838
       54        4      3.6085    924.7504   4819.9936     -1.1558     -1.8652
       55        4      3.9347   1436.5758   3706.7128     -4.7392     -1.2110
       56        4      4.9592   1609.6491   1252.5950      1.0500     -0.0476
       57        4      3.6085    924.7503   4819.9938     -1.1558     -1.8652
       58        4      1.9112   -359.0138   2511.0972      1.5844     -0.3688
       59        4      1.0451    -79.4443   4550.6131     -1.7362     -1.5760
       60        4      2.6144   1167.3969   4268.7844     -3.5235     -1.2838
       61        4      4.9592   1609.6560   1252.5962      1.0500     -0.0476
       62        4      3.9347   1436.5657   3706.6976     -4.7393     -1.2110
       63        4      2.6144   1167.3972   4268.7849     -3.5235     -1.2838
       64        4      1.0451    -79.4445   4550.6157     -1.7362     -1.5760
       65        4      1.9112   -359.0143   2511.1058      1.5844     -0.3688
       66        4      3.6085    924.7503   4819.9941     -1.1558     -1.8652
       67        4      6.2108    891.2114    180.8726      0.8727      0.1459
       68        4      4.6034   1154.2407   3002.2982    -12.3443     -1.0810
       69        4      3.6085    924.7507   4819.9950     -1.1558     -1.8652
       70        4      2.6144   1167.3977   4268.7862     -3.5235     -1.2838
       71        4      3.6085    924.7508   4819.9942     -1.1558     -1.8652
       72        4      4.6034   1154.2380   3002.2884    -12.3448     -1.0810
       73        4      5.4492   1633.2083   1072.1790      0.9528      0.0496
       74        4      4.6034   1154.2378   3002.2889    -12.3447     -1.0810
       75        4      2.4513   -339.0713   1999.7421      1.3161     -0.2402
       76        4      1.9112   -359.0140   2511.1053      1.5844     -0.3688
       77        4      3.1818    569.9419   4951.0014     -1.3793     -1.7250
       78        4      4.9592   1609.6494   1252.5953      1.0500     -0.0476
       79        4      4.6034   1154.2378   3002.2886    -12.3447     -1.0810
       80        4      6.2108    891.2112    180.8725      0.8727      0.1459
       81        4      4.6034   1154.2409   3002.2970    -12.3444     -1.0810
       82        4      3.6085    924.7503   4819.9940     -1.1558     -1.8652
       83        4      2.6144   1167.3970   4268.7842     -3.5235     -1.2838
       84        4      3.6085    924.7504   4819.9942     -1.1558     -1.8652
       85        4      2.4513   -339.0757   1999.7390      1.3161     -0.2402
       86        4      4.6034   1154.2408   3002.2972    -12.3444     -1.0810
       87        4      5.4492   1633.2108   1072.1829      0.9528      0.0496
       88        4      4.9592   1609.6563   1252.5955      1.0500     -0.0476
       89        4      3.1818    569.9422   4951.0019     -1.3793     -1.7250
       90        4      1.9112   -359.0138   2511.0976      1.5844     -0.3688
       91        4      1.9112   -359.0142   2511.1054      1.5844     -0.3688
       92        4      3.6085    924.7503   4819.9940     -1.1558     -1.8652
       93        4      4.9592   1609.6563   1252.5954      1.0500     -0.0476
       94        4      3.9347   1436.5656   3706.6973     -4.7393     -1.2110
       95        4      2.6144   1167.3970   4268.7842     -3.5235     -1.2838
       96        4      1.0451    -79.4445   4550.6146     -1.7362     -1.5760
       97        4      3.1818    569.9418   4951.0028     -1.3793     -1.7250
       98        4      2.6144   1167.3971   4268.7852     -3.5235     -1.2838
       99        4      3.1818    569.9422   4951.0020     -1.3793     -1.7250
      100        4      2.6144   1167.3972   4268.7854     -3.5235     -1.2838
      101        4      3.1818    569.9419   4951.0023     -1.3793     -1.7250
      102        4      2.6144   1167.3973   4268.7860     -3.5235     -1.2838
      103        4      4.9592   1609.6498   1252.5954      1.0500     -0.0476
      104        4      3.6085    924.7505   4819.9949     -1.1558     -1.8652
      105        4      1.9112   -359.0137   2511.0975      1.5844     -0.3688
      106        4      1.0451    -79.4445   4550.6153     -1.7362     -1.5760
      107        4      2.6144   1167.3979   4268.7875     -3.5235     -1.2838
      108        4      3.9347   1436.5764   3706.7147     -4.7392     -1.2110
      109        4      4.9298   1455.6635   1227.0594      1.1005     -0.0913
      110        4      3.9347   1436.5762   3706.7134     -4.7392     -1.2110
      111        4      1.9112   -359.0141   2511.1056      1.5844     -0.3688
      112        4      0.8828   -116.0066    359.4778      0.8230      0.2150
      113        4      1.9112   -359.0140   2511.0971      1.5844     -0.3688
      114        4      3.9347   1436.5658   3706.6980     -4.7393     -1.2110
      115        4      3.9347   1436.5759   3706.7128     -4.7392     -1.2110
      116        4      4.9592   1609.6494   1252.5952      1.0500     -0.0476
      117        4      3.6085    924.7504   4819.9939     -1.1558     -1.8652
      118        4      1.9112   -359.0141   2511.0975      1.5844     -0.3688
      119        4      1.0451    -79.4443   4550.6130     -1.7362     -1.5760
      120        4      2.6144   1167.3970   4268.7842     -3.5235     -1.2838
      121        4      1.9112   -359.0139   2511.1053      1.5844     -0.3688
      122        4      3.6085    924.7504   4819.9940     -1.1558     -1.8652
      123        4      4.9592   1609.6563   1252.5955      1.0500     -0.0476
      124        4      3.9347   1436.5657   3706.6978     -4.7393     -1.2110
      125        4      2.6144   1167.3968   4268.7841     -3.5235     -1.2838
      126        4      1.0451    -79.4445   4550.6132     -1.7362     -1.5760
      127        4      0.8828   -116.0065    359.4778      0.8230      0.2150
      128        4      1.9112   -359.0142   2511.0975      1.5844     -0.3688
      129        4      3.9347   1436.5658   3706.6978     -4.7393     -1.2110
      130        4      4.9298   1455.6633   1227.0592      1.1005     -0.0913
      131        4      3.9347   1436.5755   3706.7123     -4.7392     -1.2110
      132        4      1.9112   -359.0143   2511.1051      1.5844     -0.3688
      133        4      1.9112   -359.0139   2511.0978      1.5844     -0.3688
      134        4      1.0451    -79.4446   4550.6160     -1.7362     -1.5760
      135        4      2.6144   1167.3972   4268.7856     -3.5235     -1.2838
      136        4      3.9347   1436.5759   3706.7126     -4.7392     -1.2110
      137        4      4.9592   1609.6489   1252.5955      1.0500     -0.0476
      138        4      3.6085    924.7507   4819.9951     -1.1558     -1.8652
      139        4      3.9347   1436.5663   3706.6988     -4.7393     -1.2110
      140        4      2.6144   1167.3978   4268.7871     -3.5235     -1.2838
      141        4      1.0451    -79.4447   4550.6154     -1.7362     -1.5760
      142        4      1.9112   -359.0142   2511.1057      1.5844     -0.3688
      143        4      3.6085    924.7510   4819.9956     -1.1558     -1.8652
      144        4      4.9592   1609.6566   1252.5956      1.0500     -0.0476
      145        4      5.4492   1633.2107   1072.1832      0.9528      0.0496
      146        4      4.9592   1609.6568   1252.5975      1.0500     -0.0476
      147        4      3.1818    569.9416   4951.0051     -1.3793     -1.7250
      148        4      1.9112   -359.0147   2511.0981      1.5844     -0.3688
      149        4      2.4513   -339.0712   1999.7437      1.3161     -0.2402
      150        4      4.6034   1154.2413   3002.2966    -12.3444     -1.0810
      151        4      4.9592   1609.6561   1252.5960      1.0500     -0.0476
      152        4      3.9347   1436.5660   3706.6982     -4.7393     -1.2110
      153        4      2.6144   1167.3973   4268.7848     -3.5235     -1.2838
      154        4      1.0451    -79.4446   4550.6156     -1.7362     -1.5760
      155        4      1.9112   -359.0138   2511.1051      1.5844     -0.3688
      156        4      3.6085    924.7504   4819.9954     -1.1558     -1.8652
      157        4      3.1818    569.9420   4951.0027     -1.3793     -1.7250
      158        4      2.6144   1167.3971   4268.7852     -3.5235     -1.2838
      159        4      3.1818    569.9422   4951.0019     -1.3793     -1.7250
      160        4      2.6144   1167.3969   4268.7849     -3.5235     -1.2838
      161        4      3.1818    569.9420   4951.0019     -1.3793     -1.7250
      162        4      2.6144   1167.3969   4268.7848     -3.5235     -1.2838
      163        4      1.9112   -359.0144   2511.0981      1.5844     -0.3688
      164        4      1.0451    -79.4447   4550.6160     -1.7362     -1.5760
      165        4      2.6144   1167.3972   4268.7851     -3.5235     -1.2838
      166        4      3.9347   1436.5756   3706.7121     -4.7392     -1.2110
      167        4      4.9592   1609.6488   1252.5950      1.0500     -0.0476
      168        4      3.6085    924.7504   4819.9937     -1.1558     -1.8652
      169        4      2.4513   -339.0721   1999.7438      1.3161     -0.2402
      170        4      1.9112   -359.0143   2511.1054      1.5844     -0.3688
      171        4      3.1818    569.9415   4951.0043     -1.3793     -1.7250
      172        4      4.9592   1609.6494   1252.5965      1.0500     -0.0476
      173        4      5.4492   1633.2080   1072.1792      0.9528      0.0496
      174        4      4.6034   1154.2375   3002.2881    -12.3448     -1.0810
      175        4      4.6034   1154.2416   3002.2995    -12.3443     -1.0810
      176        4      3.6085    924.7510   4819.9975     -1.1558     -1.8652
      177        4      2.6144   1167.3981   4268.7883     -3.5235     -1.2838
      178        4      3.6085    924.7509   4819.9954     -1.1558     -1.8652
      179        4      4.6034   1154.2378   3002.2910    -12.3446     -1.0810
      180        4      6.2108    891.2113    180.8725      0.8727      0.1459
      181        4      6.4212   1046.4097    147.6339      0.8314      0.2028
      182        4      6.2108    891.2114    180.8726      0.8727      0.1459
      183        4      4.9592   1609.6498   1252.5955      1.0500     -0.0476
      184        4      3.9347   1436.5663   3706.6990     -4.7393     -1.2110
      185        4      4.6034   1154.2408   3002.2974    -12.3444     -1.0810
      186        4      5.4468   1097.9183   2346.8473      8.3663     -0.8805
      187        4      6.2108    891.2114    180.8726      0.8727      0.1459
      188        4      4.6034   1154.2406   3002.2989    -12.3442     -1.0810
      189        4      3.6085    924.7506   4819.9958     -1.1558     -1.8652
      190        4      2.6144   1167.3976   4268.7861     -3.5235     -1.2838
      191        4      3.6085    924.7509   4819.9948     -1.1558     -1.8652
      192        4      4.6034   1154.2387   3002.2892    -12.3448     -1.0810
      193        4      4.9592   1609.6496   1252.5953      1.0500     -0.0476
      194        4      3.6085    924.7505   4819.9953     -1.1558     -1.8652
      195        4      1.9112   -359.0137   2511.0974      1.5844     -0.3688
      196        4      1.0451    -79.4443   4550.6141     -1.7362     -1.5760
      197        4      2.6144   1167.3976   4268.7862     -3.5235     -1.2838
      198        4      3.9347   1436.5763   3706.7139     -4.7392     -1.2110
      199        4      3.9347   1436.5660   3706.6987     -4.7393     -1.2110
      200        4      2.6144   1167.3978   4268.7873     -3.5235     -1.2838
      201        4      1.0451    -79.4446   4550.6155     -1.7362     -1.5760
      202        4      1.9112   -359.0141   2511.1051      1.5844     -0.3688
      203        4      3.6085    924.7505   4819.9938     -1.1558     -1.8652
      204        4      4.9592   1609.6563   1252.5955      1.0500     -0.0476
      205        4      4.6034   1154.2409   3002.2992    -12.3442     -1.0810
      206        4      3.6085    924.7511   4819.9964     -1.1558     -1.8652
      207        4      2.6144   1167.3981   4268.7883     -3.5235     -1.2838
      208        4      3.6085    924.7509   4819.9947     -1.1558     -1.8652
      209        4      4.6034   1154.2376   3002.2894    -12.3447     -1.0810
      210        4      6.2108    891.2111    180.8725      0.8727      0.1459
      211        4      5.4468   1097.9119   2346.8324      8.3659     -0.8805
      212        4      4.6034   1154.2385   3002.2895    -12.3447     -1.0810
      213        4      3.9347   1436.5767   3706.7144     -4.7392     -1.2110
      214        4      4.9592   1609.6563   1252.5949      1.0500     -0.0476
      215        4      6.2108    891.2112    180.8726      0.8727      0.1459
      216        4      6.4212   1046.4161    147.6363      0.8314      0.2028
  

     ===================================================================
     Eliashberg Spectral Function in the Migdal Approximation
     ===================================================================

     lambda :   15.8211761
     lambda_tr :   87.6690022

     Estimated Allen-Dynes Tc

     logavg =    0.0000535 l_a2F =   15.8629656
     mu =   0.10 Tc =         2.147951782032 K
     mu =   0.12 Tc =         2.110357539199 K
     mu =   0.14 Tc =         2.072315539737 K
     mu =   0.16 Tc =         2.033824146085 K
     mu =   0.18 Tc =         1.994882236233 K
     mu =   0.20 Tc =         1.955489262952 K
     a2F          :      0.08s CPU      0.08s WALL (       1 calls)

     Unfolding on the coarse grid
     elphon_wrap  :     43.96s CPU     44.52s WALL (       1 calls)

     INITIALIZATION: 

     init_vloc    :      0.10s CPU      0.10s WALL (      29 calls)
     init_us_1    :      1.48s CPU      1.47s WALL (      29 calls)


     Electron-Phonon interpolation
     ephwann      :      1.58s CPU      1.99s WALL (       1 calls)
     ep-interp    :      1.35s CPU      1.38s WALL (     216 calls)
     PH SELF-ENER :      0.04s CPU      0.04s WALL (     216 calls)

     Ham: step 1  :      0.00s CPU      0.00s WALL (       1 calls)
     Ham: step 2  :      0.00s CPU      0.01s WALL (       1 calls)
     ep: step 1   :      0.00s CPU      0.00s WALL (      81 calls)
     ep: step 2   :      0.02s CPU      0.02s WALL (      81 calls)
     DynW2B       :      0.00s CPU      0.00s WALL (     216 calls)
     HamW2B       :      0.58s CPU      0.58s WALL (   23436 calls)
     ephW2Bp      :      0.04s CPU      0.04s WALL (     216 calls)


     Total program execution
     EPW          :    49.03s CPU        50.04s WALL

