ANIMSTEPS  12
CRYSTAL
PRIMVEC
    5.219999979    0.000000000    0.000000000
    0.000000000    2.901185069   -1.674999988
    0.000000000    0.000000000    3.349999976
PRIMCOORD  1
      4   1
   Zn     6.73677   1.63458  -0.17206   0.00096  -0.01539  -0.01269
   Zn     4.13630   0.66824   1.50188   0.00296   0.01440   0.00761
   O      3.52312   1.63576  -0.17358   0.00096   0.07252   0.04190
   O      6.13134   0.66943   1.50352   0.00302  -0.04019  -0.02623
PRIMCOORD  2
      4   1
   Zn     6.73677   1.63458  -0.17206  -0.01239  -0.04071  -0.01445
   Zn     4.13630   0.66824   1.50188  -0.03473   0.04115  -0.00190
   O      3.52312   1.63576  -0.17358  -0.01237  -0.02111  -0.04604
   O      6.13134   0.66943   1.50352  -0.03474   0.02901   0.01764
PRIMCOORD  3
      4   1
   Zn     6.73677   1.63458  -0.17206  -0.03771   0.05367  -0.01682
   Zn     4.13630   0.66824   1.50188  -0.02086   0.01496  -0.01299
   O      3.52312   1.63576  -0.17358  -0.03773   0.03626   0.00548
   O      6.13134   0.66943   1.50352  -0.02086   0.02577  -0.02681
PRIMCOORD  4
      4   1
   Zn     6.73677   1.63458  -0.17206   0.01706   0.01993   0.04878
   Zn     4.13630   0.66824   1.50188  -0.00439   0.03835   0.02609
   O      3.52312   1.63576  -0.17358   0.01708   0.03389   0.01566
   O      6.13134   0.66943   1.50352  -0.00440   0.02969   0.04665
PRIMCOORD  5
      4   1
   Zn     6.73677   1.63458  -0.17206   0.03202   0.01405  -0.03077
   Zn     4.13630   0.66824   1.50188   0.03217   0.03260  -0.01984
   O      3.52312   1.63576  -0.17358   0.03202   0.00175  -0.03760
   O      6.13134   0.66943   1.50352   0.03216   0.04024  -0.01563
PRIMCOORD  6
      4   1
   Zn     6.73677   1.63458  -0.17206  -0.02134  -0.00047  -0.02390
   Zn     4.13630   0.66824   1.50188   0.02365   0.00720   0.05044
   O      3.52312   1.63576  -0.17358  -0.02139  -0.04545   0.03652
   O      6.13134   0.66943   1.50352   0.02367   0.03514   0.01288
PRIMCOORD  7
      4   1
   Zn     6.73677   1.63458  -0.17206   0.00564   0.00532   0.00503
   Zn     4.13630   0.66824   1.50188  -0.00578  -0.00259   0.02740
   O      3.52312   1.63576  -0.17358   0.00775   0.00174  -0.06112
   O      6.13134   0.66943   1.50352  -0.00719  -0.01288  -0.07147
PRIMCOORD  8
      4   1
   Zn     6.73677   1.63458  -0.17206   0.00131  -0.01070  -0.00252
   Zn     4.13630   0.66824   1.50188  -0.00121  -0.02209   0.00432
   O      3.52312   1.63576  -0.17358   0.00011   0.05689  -0.01241
   O      6.13134   0.66943   1.50352  -0.00049   0.07716   0.00504
PRIMCOORD  9
      4   1
   Zn     6.73677   1.63458  -0.17206  -0.02737  -0.01856   0.03409
   Zn     4.13630   0.66824   1.50188   0.02740   0.01338  -0.02009
   O      3.52312   1.63576  -0.17358  -0.02626  -0.00825   0.00647
   O      6.13134   0.66943   1.50352   0.02617   0.02943  -0.06372
PRIMCOORD 10
      4   1
   Zn     6.73677   1.63458  -0.17206  -0.01942  -0.00005  -0.00003
   Zn     4.13630   0.66824   1.50188  -0.01391  -0.00008  -0.00007
   O      3.52312   1.63576  -0.17358   0.07643   0.00124  -0.00169
   O      6.13134   0.66943   1.50352   0.05982  -0.00070   0.00208
PRIMCOORD 11
      4   1
   Zn     6.73677   1.63458  -0.17206  -0.02151   0.00023   0.00108
   Zn     4.13630   0.66824   1.50188   0.02390   0.00021   0.00207
   O      3.52312   1.63576  -0.17358  -0.00251   0.03308  -0.06349
   O      6.13134   0.66943   1.50352  -0.00725  -0.03489   0.05059
PRIMCOORD 12
      4   1
   Zn     6.73677   1.63458  -0.17206   0.00860   0.00013   0.00068
   Zn     4.13630   0.66824   1.50188  -0.01229   0.00034   0.00085
   O      3.52312   1.63576  -0.17358  -0.05968   0.00813  -0.01782
   O      6.13134   0.66943   1.50352   0.07478  -0.01008   0.01160
