[Molden Format]
[FREQ]
    0.00
    0.00
    0.00
    0.00
    0.00
    0.00
    0.00
   36.83
  154.19
  180.34
  272.84
  338.91
[FR-COORD]
   Zn         12.73064        3.08890       -0.32514
   Zn          7.81648        1.26278        2.83814
   O           6.65774        3.09114       -0.32801
   O          11.58656        1.26504        2.84123
[FR-NORM-COORD]
 vibration     1
  -0.03797  -0.04499  -0.07173
   0.03931   0.00794  -0.25439
  -0.05425   0.01008   0.59296
   0.04878   0.14138   0.74031
 vibration     2
   0.17427  -0.00923   0.21064
  -0.19600   0.09339  -0.30533
   0.17468   0.74407  -0.06523
  -0.19586  -0.37447  -0.13348
 vibration     3
  -0.30457  -0.23764   0.35090
  -0.41793  -0.16243   0.21822
  -0.30446  -0.18844   0.16168
  -0.41800  -0.19297   0.33565
 vibration     4
   0.05689  -0.78053  -0.41967
  -0.08022   0.25371  -0.03562
   0.05709  -0.06251  -0.26848
  -0.07987  -0.19185  -0.13000
 vibration     5
   0.17763  -0.16576   0.07316
   0.12371  -0.59491  -0.25834
   0.17765  -0.49634  -0.22116
   0.12344  -0.38975  -0.07544
 vibration     6
  -0.24996   0.18459  -0.22279
  -0.26680  -0.01181  -0.36233
  -0.24999  -0.31952  -0.54618
  -0.26716   0.30123  -0.16182
 vibration     7
   0.22516  -0.03797   0.23623
  -0.02341   0.18052  -0.02379
   0.22535  -0.45370  -0.48108
  -0.02393   0.43884   0.42088
 vibration     8
  -0.00265   0.11259   0.00873
   0.00384   0.21491  -0.04385
   0.00263  -0.56217   0.14015
  -0.00752  -0.77676   0.00344
 vibration     9
   0.28910   0.19103  -0.35140
  -0.31288  -0.15870   0.24236
   0.33002   0.11735  -0.12069
  -0.23279  -0.24955   0.56649
 vibration    10
  -0.19568  -0.00648   0.01179
  -0.13859   0.00601  -0.00983
   0.74641  -0.00570   0.00759
   0.62022   0.00763  -0.01558
 vibration    11
  -0.21966   0.00625   0.00207
   0.23195  -0.00246   0.02538
   0.04192   0.33084  -0.62679
  -0.09214  -0.34632   0.51454
 vibration    12
   0.07796   0.00073   0.00727
  -0.10993   0.00373   0.00709
  -0.60276   0.09421  -0.19839
   0.73349  -0.11246   0.13967
