ANIMSTEPS  12
CRYSTAL
PRIMVEC
    5.219999979    0.000000000    0.000000000
    0.000000000    2.901185069   -1.674999988
    0.000000000    0.000000000    3.349999976
PRIMCOORD  1
      4   1
   Zn     6.73677   1.63458  -0.17206  -0.00382  -0.00451  -0.00713
   Zn     4.13630   0.66824   1.50188   0.00396   0.00084  -0.02548
   O      3.52312   1.63576  -0.17358  -0.00547   0.00092   0.05936
   O      6.13134   0.66943   1.50352   0.00490   0.01409   0.07397
PRIMCOORD  2
      4   1
   Zn     6.73677   1.63458  -0.17206  -0.01809   0.00948  -0.01280
   Zn     4.13630   0.66824   1.50188   0.01882  -0.01778   0.02879
   O      3.52312   1.63576  -0.17358  -0.01813  -0.07550   0.00898
   O      6.13134   0.66943   1.50352   0.01880   0.03500   0.01522
PRIMCOORD  3
      4   1
   Zn     6.73677   1.63458  -0.17206  -0.02918  -0.02875   0.03385
   Zn     4.13630   0.66824   1.50188  -0.04301  -0.01245   0.02178
   O      3.52312   1.63576  -0.17358  -0.02917  -0.01301   0.01639
   O      6.13134   0.66943   1.50352  -0.04301  -0.02222   0.03261
PRIMCOORD  4
      4   1
   Zn     6.73677   1.63458  -0.17206  -0.00786   0.07808   0.04588
   Zn     4.13630   0.66824   1.50188  -0.00713  -0.01850  -0.00875
   O      3.52312   1.63576  -0.17358  -0.00787   0.02390   0.01601
   O      6.13134   0.66943   1.50352  -0.00717   0.01511   0.00985
PRIMCOORD  5
      4   1
   Zn     6.73677   1.63458  -0.17206   0.03226  -0.01900   0.02696
   Zn     4.13630   0.66824   1.50188   0.02108  -0.05278  -0.00990
   O      3.52312   1.63576  -0.17358   0.03227  -0.02659   0.00113
   O      6.13134   0.66943   1.50352   0.02107  -0.04808   0.00616
PRIMCOORD  6
      4   1
   Zn     6.73677   1.63458  -0.17206  -0.02200   0.00451  -0.02637
   Zn     4.13630   0.66824   1.50188  -0.02118  -0.02966  -0.04482
   O      3.52312   1.63576  -0.17358  -0.02201  -0.03512  -0.04767
   O      6.13134   0.66943   1.50352  -0.02120  -0.00505  -0.03159
PRIMCOORD  7
      4   1
   Zn     6.73677   1.63458  -0.17206   0.01586  -0.00234   0.01618
   Zn     4.13630   0.66824   1.50188  -0.00729   0.01600  -0.00919
   O      3.52312   1.63576  -0.17358   0.01588  -0.04933  -0.05540
   O      6.13134   0.66943   1.50352  -0.00734   0.04519   0.03518
PRIMCOORD  8
      4   1
   Zn     6.73677   1.63458  -0.17206  -0.00029   0.01125   0.00091
   Zn     4.13630   0.66824   1.50188   0.00040   0.02151  -0.00438
   O      3.52312   1.63576  -0.17358   0.00027  -0.05625   0.01399
   O      6.13134   0.66943   1.50352  -0.00073  -0.07766   0.00018
PRIMCOORD  9
      4   1
   Zn     6.73677   1.63458  -0.17206   0.02880   0.01910  -0.03513
   Zn     4.13630   0.66824   1.50188  -0.03137  -0.01582   0.02415
   O      3.52312   1.63576  -0.17358   0.03340   0.01158  -0.01184
   O      6.13134   0.66943   1.50352  -0.02287  -0.02502   0.05671
PRIMCOORD 10
      4   1
   Zn     6.73677   1.63458  -0.17206  -0.01963  -0.00071   0.00128
   Zn     4.13630   0.66824   1.50188  -0.01379   0.00064  -0.00106
   O      3.52312   1.63576  -0.17358   0.07461  -0.00065   0.00091
   O      6.13134   0.66943   1.50352   0.06204   0.00092  -0.00181
PRIMCOORD 11
      4   1
   Zn     6.73677   1.63458  -0.17206  -0.02195   0.00064   0.00019
   Zn     4.13630   0.66824   1.50188   0.02311  -0.00024   0.00254
   O      3.52312   1.63576  -0.17358   0.00416   0.03307  -0.06268
   O      6.13134   0.66943   1.50352  -0.00891  -0.03469   0.05153
PRIMCOORD 12
      4   1
   Zn     6.73677   1.63458  -0.17206   0.00783   0.00007   0.00073
   Zn     4.13630   0.66824   1.50188  -0.01106   0.00038   0.00070
   O      3.52312   1.63576  -0.17358  -0.06024   0.00934  -0.01969
   O      6.13134   0.66943   1.50352   0.07345  -0.01118   0.01385
