ANIMSTEPS  12
CRYSTAL
PRIMVEC
    5.219999979    0.000000000    0.000000000
    0.000000000    2.901185069   -1.674999988
    0.000000000    0.000000000    3.349999976
PRIMCOORD  1
      4   1
   Zn     6.73677   1.63458  -0.17206  -0.00380  -0.00450  -0.00717
   Zn     4.13630   0.66824   1.50188   0.00393   0.00079  -0.02544
   O      3.52312   1.63576  -0.17358  -0.00543   0.00101   0.05930
   O      6.13134   0.66943   1.50352   0.00488   0.01414   0.07403
PRIMCOORD  2
      4   1
   Zn     6.73677   1.63458  -0.17206   0.01743  -0.00092   0.02106
   Zn     4.13630   0.66824   1.50188  -0.01960   0.00934  -0.03053
   O      3.52312   1.63576  -0.17358   0.01747   0.07441  -0.00652
   O      6.13134   0.66943   1.50352  -0.01959  -0.03745  -0.01335
PRIMCOORD  3
      4   1
   Zn     6.73677   1.63458  -0.17206  -0.03046  -0.02376   0.03509
   Zn     4.13630   0.66824   1.50188  -0.04179  -0.01624   0.02182
   O      3.52312   1.63576  -0.17358  -0.03045  -0.01884   0.01617
   O      6.13134   0.66943   1.50352  -0.04180  -0.01930   0.03356
PRIMCOORD  4
      4   1
   Zn     6.73677   1.63458  -0.17206   0.00569  -0.07805  -0.04197
   Zn     4.13630   0.66824   1.50188  -0.00802   0.02537  -0.00356
   O      3.52312   1.63576  -0.17358   0.00571  -0.00625  -0.02685
   O      6.13134   0.66943   1.50352  -0.00799  -0.01919  -0.01300
PRIMCOORD  5
      4   1
   Zn     6.73677   1.63458  -0.17206   0.01776  -0.01658   0.00732
   Zn     4.13630   0.66824   1.50188   0.01237  -0.05949  -0.02583
   O      3.52312   1.63576  -0.17358   0.01776  -0.04963  -0.02212
   O      6.13134   0.66943   1.50352   0.01234  -0.03898  -0.00754
PRIMCOORD  6
      4   1
   Zn     6.73677   1.63458  -0.17206  -0.02500   0.01846  -0.02228
   Zn     4.13630   0.66824   1.50188  -0.02668  -0.00118  -0.03623
   O      3.52312   1.63576  -0.17358  -0.02500  -0.03195  -0.05462
   O      6.13134   0.66943   1.50352  -0.02672   0.03012  -0.01618
PRIMCOORD  7
      4   1
   Zn     6.73677   1.63458  -0.17206   0.02252  -0.00380   0.02362
   Zn     4.13630   0.66824   1.50188  -0.00234   0.01805  -0.00238
   O      3.52312   1.63576  -0.17358   0.02253  -0.04537  -0.04811
   O      6.13134   0.66943   1.50352  -0.00239   0.04388   0.04209
PRIMCOORD  8
      4   1
   Zn     6.73677   1.63458  -0.17206  -0.00026   0.01126   0.00087
   Zn     4.13630   0.66824   1.50188   0.00038   0.02149  -0.00438
   O      3.52312   1.63576  -0.17358   0.00026  -0.05622   0.01402
   O      6.13134   0.66943   1.50352  -0.00075  -0.07768   0.00034
PRIMCOORD  9
      4   1
   Zn     6.73677   1.63458  -0.17206   0.02891   0.01910  -0.03514
   Zn     4.13630   0.66824   1.50188  -0.03129  -0.01587   0.02424
   O      3.52312   1.63576  -0.17358   0.03300   0.01174  -0.01207
   O      6.13134   0.66943   1.50352  -0.02328  -0.02496   0.05665
PRIMCOORD 10
      4   1
   Zn     6.73677   1.63458  -0.17206  -0.01957  -0.00065   0.00118
   Zn     4.13630   0.66824   1.50188  -0.01386   0.00060  -0.00098
   O      3.52312   1.63576  -0.17358   0.07464  -0.00057   0.00076
   O      6.13134   0.66943   1.50352   0.06202   0.00076  -0.00156
PRIMCOORD 11
      4   1
   Zn     6.73677   1.63458  -0.17206  -0.02197   0.00062   0.00021
   Zn     4.13630   0.66824   1.50188   0.02319  -0.00025   0.00254
   O      3.52312   1.63576  -0.17358   0.00419   0.03308  -0.06268
   O      6.13134   0.66943   1.50352  -0.00921  -0.03463   0.05145
PRIMCOORD 12
      4   1
   Zn     6.73677   1.63458  -0.17206   0.00780   0.00007   0.00073
   Zn     4.13630   0.66824   1.50188  -0.01099   0.00037   0.00071
   O      3.52312   1.63576  -0.17358  -0.06028   0.00942  -0.01984
   O      6.13134   0.66943   1.50352   0.07335  -0.01125   0.01397
