[Molden Format]
[FREQ]
    0.00
    0.00
    0.00
    0.00
    0.00
    0.00
    0.00
   40.37
  155.06
  181.07
  273.21
  338.99
[FR-COORD]
   Zn         12.73064        3.08890       -0.32514
   Zn          7.81648        1.26278        2.83814
   O           6.65774        3.09114       -0.32801
   O          11.58656        1.26504        2.84123
[FR-NORM-COORD]
 vibration     1
  -0.03822  -0.04508  -0.07135
   0.03961   0.00837  -0.25478
  -0.05466   0.00917   0.59363
   0.04896   0.14090   0.73969
 vibration     2
  -0.18089   0.09484  -0.12804
   0.18819  -0.17781   0.28793
  -0.18131  -0.75501   0.08984
   0.18799   0.34995   0.15219
 vibration     3
  -0.29183  -0.28754   0.33849
  -0.43010  -0.12452   0.21780
  -0.29169  -0.13012   0.16391
  -0.43013  -0.22223   0.32614
 vibration     4
  -0.07864   0.78085   0.45876
  -0.07134  -0.18505  -0.08748
  -0.07870   0.23904   0.16011
  -0.07169   0.15109   0.09853
 vibration     5
   0.32257  -0.18995   0.26961
   0.21085  -0.52783  -0.09901
   0.32267  -0.26586   0.01134
   0.21069  -0.48082   0.06163
 vibration     6
  -0.22004   0.04512  -0.26374
  -0.21178  -0.29656  -0.44815
  -0.22009  -0.35122  -0.47668
  -0.21204  -0.05053  -0.31594
 vibration     7
   0.15864  -0.02342   0.16185
  -0.07288   0.15998  -0.09195
   0.15881  -0.49325  -0.55396
  -0.07342   0.45189   0.35178
 vibration     8
  -0.00285   0.11246   0.00915
   0.00399   0.21507  -0.04381
   0.00266  -0.56249   0.13990
  -0.00731  -0.77656   0.00180
 vibration     9
   0.28798   0.19101  -0.35128
  -0.31374  -0.15815   0.24153
   0.33398   0.11585  -0.11838
  -0.22867  -0.25015   0.56706
 vibration    10
  -0.19634  -0.00710   0.01283
  -0.13790   0.00643  -0.01062
   0.74608  -0.00650   0.00909
   0.62039   0.00921  -0.01814
 vibration    11
  -0.21945   0.00640   0.00185
   0.23107  -0.00244   0.02542
   0.04159   0.33074  -0.62679
  -0.08907  -0.34690   0.51526
 vibration    12
   0.07828   0.00071   0.00731
  -0.11060   0.00380   0.00698
  -0.60238   0.09335  -0.19690
   0.73451  -0.11179   0.13849
