[Molden Format]
[FREQ]
    0.00
    0.00
    0.00
    0.00
    0.00
    0.00
   47.34
  105.62
  157.77
  214.72
  276.27
  337.53
[FR-COORD]
   Zn         12.73064        3.08890       -0.32514
   Zn          7.81648        1.26278        2.83814
   O           6.65774        3.09114       -0.32801
   O          11.58656        1.26504        2.84123
[FR-NORM-COORD]
 vibration     1
   0.00958  -0.15387  -0.12686
   0.02956   0.14400   0.07613
   0.00965   0.72516   0.41902
   0.03016  -0.40188  -0.26228
 vibration     2
  -0.12390  -0.40708  -0.14448
  -0.34730   0.41148  -0.01898
  -0.12368  -0.21115  -0.46037
  -0.34738   0.29012   0.17637
 vibration     3
  -0.37713   0.53674  -0.16822
  -0.20864   0.14964  -0.12992
  -0.37730   0.36258   0.05477
  -0.20859   0.25766  -0.26807
 vibration     4
   0.17056   0.19929   0.48778
  -0.04391   0.38350   0.26094
   0.17077   0.33885   0.15659
  -0.04403   0.29689   0.46646
 vibration     5
   0.32023   0.14048  -0.30768
   0.32166   0.32595  -0.19839
   0.32022   0.01752  -0.37598
   0.32158   0.40241  -0.15632
 vibration     6
  -0.21343  -0.00471  -0.23895
   0.23655   0.07201   0.50438
  -0.21388  -0.45450   0.36519
   0.23669   0.35142   0.12882
 vibration     7
   0.05642   0.05319   0.05031
  -0.05779  -0.02594   0.27399
   0.07754   0.01742  -0.61117
  -0.07194  -0.12881  -0.71468
 vibration     8
   0.01307  -0.10702  -0.02520
  -0.01213  -0.22086   0.04321
   0.00106   0.56893  -0.12408
  -0.00490   0.77156   0.05044
 vibration     9
  -0.27373  -0.18558   0.34093
   0.27396   0.13377  -0.20090
  -0.26261  -0.08251   0.06469
   0.26168   0.29432  -0.63721
 vibration    10
  -0.19417  -0.00049  -0.00026
  -0.13910  -0.00081  -0.00071
   0.76432   0.01236  -0.01690
   0.59820  -0.00704   0.02084
 vibration    11
  -0.21508   0.00233   0.01084
   0.23896   0.00208   0.02069
  -0.02510   0.33085  -0.63486
  -0.07252  -0.34886   0.50595
 vibration    12
   0.08598   0.00133   0.00676
  -0.12294   0.00342   0.00845
  -0.59675   0.08135  -0.17821
   0.74783  -0.10079   0.11602
