<UPF version="2.0.1">
  <PP_INFO>

 This pseudopotential file has been produced using the code
 ONCVPSP  (Optimized Norm-Conservinng Vanderbilt PSeudopotential)
 scalar-relativistic version 2.1.1, 03/26/2014 by D. R. Hamann
 The code is available through a link at URL www.mat-simresearch.com.
 Documentation with the package provides a full discription of the
 input data below.


 While it is not required under the terms of the GNU GPL, it is
 suggested that you cite D. R. Hamann, Phys. Rev. B 88, 085117 (2013)
 in any publication using these pseudopotentials.


 Copyright 2015 The Regents of the University of California
 
 This work is licensed under the Creative Commons Attribution-ShareAlike 
 4.0 International License. To view a copy of this license, visit 
 http://creativecommons.org/licenses/by-sa/4.0/ or send a letter to 
 Creative Commons, PO Box 1866, Mountain View, CA 94042, USA.
 
 This pseudopotential is part of the Schlipf-Gygi norm-conserving 
 pseudopotential library. Its construction parameters were tuned to 
 reproduce materials of a training set with very high accuracy and 
 should be suitable as a general purpose pseudopotential to treat a 
 variety of different compounds. For details of the construction and 
 testing of the pseudopotential please refer to:
 
 [insert reference to paper here]
 
 We kindly ask that you include this reference in all publications 
 associated to this pseudopotential.


    <PP_INPUTFILE>
# ATOM AND REFERENCE CONFIGURATION
# atsym  z    nc    nv    iexc   psfile
  Si 14.00     3     2     4      upf
#
#   n    l    f        energy (Ha)
    1    0    2.00
    2    0    2.00
    2    1    6.00
    3    0    2.00
    3    1    2.00
#
# PSEUDOPOTENTIAL AND OPTIMIZATION
# lmax
    1
#
#   l,   rc,     ep,   ncon, nbas, qcut
    0   2.26557  -0.39736    5    8   4.77946
    1   3.56481  -0.14998    5    8   3.13498
#
# LOCAL POTENTIAL
# lloc, lpopt,  rc(5),   dvloc0
    4    5   1.32451      0.00000
#
# VANDERBILT-KLEINMAN-BYLANDER PROJECTORs
# l, nproj, debl
    0    2   0.46066
    1    2   0.90802
#
# MODEL CORE CHARGE
# icmod, fcfact
    0   0.00000
#
# LOG DERIVATIVE ANALYSIS
# epsh1, epsh2, depsh
   -5.00    3.00    0.02
#
# OUTPUT GRID
# rlmax, drl
    6.00    0.01
#
# TEST CONFIGURATIONS
# ncnf
    0
# nvcnf
#   n    l    f
    </PP_INPUTFILE>
  </PP_INFO>
  <!--                               -->
  <!-- END OF HUMAN READABLE SECTION -->
  <!--                               -->
    <PP_HEADER
       generated="Generated using ONCVPSP code by D. R. Hamann"
       author="Martin Schlipf and Francois Gygi"
       date="150105"
       comment=""
       element="Si"
       pseudo_type="NC"
       relativistic="scalar"
       is_ultrasoft="F"
       is_paw="F"
       is_coulomb="F"
       has_so="F"
       has_wfc="F"
       has_gipaw="F"
       core_correction="F"
       functional="PBE"
       z_valence="    4.00"
       total_psenergy="  -3.74274958433E+00"
       rho_cutoff="   6.01000000000E+00"
       l_max="1"
       l_local="-1"
       mesh_size="   602"
       number_of_wfc="0"
       number_of_proj="4"/>
 <PP_MESH>
   <PP_R type="real"  size=" 602" columns="8">
    0.0000    0.0100    0.0200    0.0300    0.0400    0.0500    0.0600    0.0700
    0.0800    0.0900    0.1000    0.1100    0.1200    0.1300    0.1400    0.1500
    0.1600    0.1700    0.1800    0.1900    0.2000    0.2100    0.2200    0.2300
    0.2400    0.2500    0.2600    0.2700    0.2800    0.2900    0.3000    0.3100
    0.3200    0.3300    0.3400    0.3500    0.3600    0.3700    0.3800    0.3900
    0.4000    0.4100    0.4200    0.4300    0.4400    0.4500    0.4600    0.4700
    0.4800    0.4900    0.5000    0.5100    0.5200    0.5300    0.5400    0.5500
    0.5600    0.5700    0.5800    0.5900    0.6000    0.6100    0.6200    0.6300
    0.6400    0.6500    0.6600    0.6700    0.6800    0.6900    0.7000    0.7100
    0.7200    0.7300    0.7400    0.7500    0.7600    0.7700    0.7800    0.7900
    0.8000    0.8100    0.8200    0.8300    0.8400    0.8500    0.8600    0.8700
    0.8800    0.8900    0.9000    0.9100    0.9200    0.9300    0.9400    0.9500
    0.9600    0.9700    0.9800    0.9900    1.0000    1.0100    1.0200    1.0300
    1.0400    1.0500    1.0600    1.0700    1.0800    1.0900    1.1000    1.1100
    1.1200    1.1300    1.1400    1.1500    1.1600    1.1700    1.1800    1.1900
    1.2000    1.2100    1.2200    1.2300    1.2400    1.2500    1.2600    1.2700
    1.2800    1.2900    1.3000    1.3100    1.3200    1.3300    1.3400    1.3500
    1.3600    1.3700    1.3800    1.3900    1.4000    1.4100    1.4200    1.4300
    1.4400    1.4500    1.4600    1.4700    1.4800    1.4900    1.5000    1.5100
    1.5200    1.5300    1.5400    1.5500    1.5600    1.5700    1.5800    1.5900
    1.6000    1.6100    1.6200    1.6300    1.6400    1.6500    1.6600    1.6700
    1.6800    1.6900    1.7000    1.7100    1.7200    1.7300    1.7400    1.7500
    1.7600    1.7700    1.7800    1.7900    1.8000    1.8100    1.8200    1.8300
    1.8400    1.8500    1.8600    1.8700    1.8800    1.8900    1.9000    1.9100
    1.9200    1.9300    1.9400    1.9500    1.9600    1.9700    1.9800    1.9900
    2.0000    2.0100    2.0200    2.0300    2.0400    2.0500    2.0600    2.0700
    2.0800    2.0900    2.1000    2.1100    2.1200    2.1300    2.1400    2.1500
    2.1600    2.1700    2.1800    2.1900    2.2000    2.2100    2.2200    2.2300
    2.2400    2.2500    2.2600    2.2700    2.2800    2.2900    2.3000    2.3100
    2.3200    2.3300    2.3400    2.3500    2.3600    2.3700    2.3800    2.3900
    2.4000    2.4100    2.4200    2.4300    2.4400    2.4500    2.4600    2.4700
    2.4800    2.4900    2.5000    2.5100    2.5200    2.5300    2.5400    2.5500
    2.5600    2.5700    2.5800    2.5900    2.6000    2.6100    2.6200    2.6300
    2.6400    2.6500    2.6600    2.6700    2.6800    2.6900    2.7000    2.7100
    2.7200    2.7300    2.7400    2.7500    2.7600    2.7700    2.7800    2.7900
    2.8000    2.8100    2.8200    2.8300    2.8400    2.8500    2.8600    2.8700
    2.8800    2.8900    2.9000    2.9100    2.9200    2.9300    2.9400    2.9500
    2.9600    2.9700    2.9800    2.9900    3.0000    3.0100    3.0200    3.0300
    3.0400    3.0500    3.0600    3.0700    3.0800    3.0900    3.1000    3.1100
    3.1200    3.1300    3.1400    3.1500    3.1600    3.1700    3.1800    3.1900
    3.2000    3.2100    3.2200    3.2300    3.2400    3.2500    3.2600    3.2700
    3.2800    3.2900    3.3000    3.3100    3.3200    3.3300    3.3400    3.3500
    3.3600    3.3700    3.3800    3.3900    3.4000    3.4100    3.4200    3.4300
    3.4400    3.4500    3.4600    3.4700    3.4800    3.4900    3.5000    3.5100
    3.5200    3.5300    3.5400    3.5500    3.5600    3.5700    3.5800    3.5900
    3.6000    3.6100    3.6200    3.6300    3.6400    3.6500    3.6600    3.6700
    3.6800    3.6900    3.7000    3.7100    3.7200    3.7300    3.7400    3.7500
    3.7600    3.7700    3.7800    3.7900    3.8000    3.8100    3.8200    3.8300
    3.8400    3.8500    3.8600    3.8700    3.8800    3.8900    3.9000    3.9100
    3.9200    3.9300    3.9400    3.9500    3.9600    3.9700    3.9800    3.9900
    4.0000    4.0100    4.0200    4.0300    4.0400    4.0500    4.0600    4.0700
    4.0800    4.0900    4.1000    4.1100    4.1200    4.1300    4.1400    4.1500
    4.1600    4.1700    4.1800    4.1900    4.2000    4.2100    4.2200    4.2300
    4.2400    4.2500    4.2600    4.2700    4.2800    4.2900    4.3000    4.3100
    4.3200    4.3300    4.3400    4.3500    4.3600    4.3700    4.3800    4.3900
    4.4000    4.4100    4.4200    4.4300    4.4400    4.4500    4.4600    4.4700
    4.4800    4.4900    4.5000    4.5100    4.5200    4.5300    4.5400    4.5500
    4.5600    4.5700    4.5800    4.5900    4.6000    4.6100    4.6200    4.6300
    4.6400    4.6500    4.6600    4.6700    4.6800    4.6900    4.7000    4.7100
    4.7200    4.7300    4.7400    4.7500    4.7600    4.7700    4.7800    4.7900
    4.8000    4.8100    4.8200    4.8300    4.8400    4.8500    4.8600    4.8700
    4.8800    4.8900    4.9000    4.9100    4.9200    4.9300    4.9400    4.9500
    4.9600    4.9700    4.9800    4.9900    5.0000    5.0100    5.0200    5.0300
    5.0400    5.0500    5.0600    5.0700    5.0800    5.0900    5.1000    5.1100
    5.1200    5.1300    5.1400    5.1500    5.1600    5.1700    5.1800    5.1900
    5.2000    5.2100    5.2200    5.2300    5.2400    5.2500    5.2600    5.2700
    5.2800    5.2900    5.3000    5.3100    5.3200    5.3300    5.3400    5.3500
    5.3600    5.3700    5.3800    5.3900    5.4000    5.4100    5.4200    5.4300
    5.4400    5.4500    5.4600    5.4700    5.4800    5.4900    5.5000    5.5100
    5.5200    5.5300    5.5400    5.5500    5.5600    5.5700    5.5800    5.5900
    5.6000    5.6100    5.6200    5.6300    5.6400    5.6500    5.6600    5.6700
    5.6800    5.6900    5.7000    5.7100    5.7200    5.7300    5.7400    5.7500
    5.7600    5.7700    5.7800    5.7900    5.8000    5.8100    5.8200    5.8300
    5.8400    5.8500    5.8600    5.8700    5.8800    5.8900    5.9000    5.9100
    5.9200    5.9300    5.9400    5.9500    5.9600    5.9700    5.9800    5.9900
    6.0000    6.0100
   </PP_R>
   <PP_RAB type="real"  size=" 602" columns="8">
    0.0100    0.0100    0.0100    0.0100    0.0100    0.0100    0.0100    0.0100
    0.0100    0.0100    0.0100    0.0100    0.0100    0.0100    0.0100    0.0100
    0.0100    0.0100    0.0100    0.0100    0.0100    0.0100    0.0100    0.0100
    0.0100    0.0100    0.0100    0.0100    0.0100    0.0100    0.0100    0.0100
    0.0100    0.0100    0.0100    0.0100    0.0100    0.0100    0.0100    0.0100
    0.0100    0.0100    0.0100    0.0100    0.0100    0.0100    0.0100    0.0100
    0.0100    0.0100    0.0100    0.0100    0.0100    0.0100    0.0100    0.0100
    0.0100    0.0100    0.0100    0.0100    0.0100    0.0100    0.0100    0.0100
    0.0100    0.0100    0.0100    0.0100    0.0100    0.0100    0.0100    0.0100
    0.0100    0.0100    0.0100    0.0100    0.0100    0.0100    0.0100    0.0100
    0.0100    0.0100    0.0100    0.0100    0.0100    0.0100    0.0100    0.0100
    0.0100    0.0100    0.0100    0.0100    0.0100    0.0100    0.0100    0.0100
    0.0100    0.0100    0.0100    0.0100    0.0100    0.0100    0.0100    0.0100
    0.0100    0.0100    0.0100    0.0100    0.0100    0.0100    0.0100    0.0100
    0.0100    0.0100    0.0100    0.0100    0.0100    0.0100    0.0100    0.0100
    0.0100    0.0100    0.0100    0.0100    0.0100    0.0100    0.0100    0.0100
    0.0100    0.0100    0.0100    0.0100    0.0100    0.0100    0.0100    0.0100
    0.0100    0.0100    0.0100    0.0100    0.0100    0.0100    0.0100    0.0100
    0.0100    0.0100    0.0100    0.0100    0.0100    0.0100    0.0100    0.0100
    0.0100    0.0100    0.0100    0.0100    0.0100    0.0100    0.0100    0.0100
    0.0100    0.0100    0.0100    0.0100    0.0100    0.0100    0.0100    0.0100
    0.0100    0.0100    0.0100    0.0100    0.0100    0.0100    0.0100    0.0100
    0.0100    0.0100    0.0100    0.0100    0.0100    0.0100    0.0100    0.0100
    0.0100    0.0100    0.0100    0.0100    0.0100    0.0100    0.0100    0.0100
    0.0100    0.0100    0.0100    0.0100    0.0100    0.0100    0.0100    0.0100
    0.0100    0.0100    0.0100    0.0100    0.0100    0.0100    0.0100    0.0100
    0.0100    0.0100    0.0100    0.0100    0.0100    0.0100    0.0100    0.0100
    0.0100    0.0100    0.0100    0.0100    0.0100    0.0100    0.0100    0.0100
    0.0100    0.0100    0.0100    0.0100    0.0100    0.0100    0.0100    0.0100
    0.0100    0.0100    0.0100    0.0100    0.0100    0.0100    0.0100    0.0100
    0.0100    0.0100    0.0100    0.0100    0.0100    0.0100    0.0100    0.0100
    0.0100    0.0100    0.0100    0.0100    0.0100    0.0100    0.0100    0.0100
    0.0100    0.0100    0.0100    0.0100    0.0100    0.0100    0.0100    0.0100
    0.0100    0.0100    0.0100    0.0100    0.0100    0.0100    0.0100    0.0100
    0.0100    0.0100    0.0100    0.0100    0.0100    0.0100    0.0100    0.0100
    0.0100    0.0100    0.0100    0.0100    0.0100    0.0100    0.0100    0.0100
    0.0100    0.0100    0.0100    0.0100    0.0100    0.0100    0.0100    0.0100
    0.0100    0.0100    0.0100    0.0100    0.0100    0.0100    0.0100    0.0100
    0.0100    0.0100    0.0100    0.0100    0.0100    0.0100    0.0100    0.0100
    0.0100    0.0100    0.0100    0.0100    0.0100    0.0100    0.0100    0.0100
    0.0100    0.0100    0.0100    0.0100    0.0100    0.0100    0.0100    0.0100
    0.0100    0.0100    0.0100    0.0100    0.0100    0.0100    0.0100    0.0100
    0.0100    0.0100    0.0100    0.0100    0.0100    0.0100    0.0100    0.0100
    0.0100    0.0100    0.0100    0.0100    0.0100    0.0100    0.0100    0.0100
    0.0100    0.0100    0.0100    0.0100    0.0100    0.0100    0.0100    0.0100
    0.0100    0.0100    0.0100    0.0100    0.0100    0.0100    0.0100    0.0100
    0.0100    0.0100    0.0100    0.0100    0.0100    0.0100    0.0100    0.0100
    0.0100    0.0100    0.0100    0.0100    0.0100    0.0100    0.0100    0.0100
    0.0100    0.0100    0.0100    0.0100    0.0100    0.0100    0.0100    0.0100
    0.0100    0.0100    0.0100    0.0100    0.0100    0.0100    0.0100    0.0100
    0.0100    0.0100    0.0100    0.0100    0.0100    0.0100    0.0100    0.0100
    0.0100    0.0100    0.0100    0.0100    0.0100    0.0100    0.0100    0.0100
    0.0100    0.0100    0.0100    0.0100    0.0100    0.0100    0.0100    0.0100
    0.0100    0.0100    0.0100    0.0100    0.0100    0.0100    0.0100    0.0100
    0.0100    0.0100    0.0100    0.0100    0.0100    0.0100    0.0100    0.0100
    0.0100    0.0100    0.0100    0.0100    0.0100    0.0100    0.0100    0.0100
    0.0100    0.0100    0.0100    0.0100    0.0100    0.0100    0.0100    0.0100
    0.0100    0.0100    0.0100    0.0100    0.0100    0.0100    0.0100    0.0100
    0.0100    0.0100    0.0100    0.0100    0.0100    0.0100    0.0100    0.0100
    0.0100    0.0100    0.0100    0.0100    0.0100    0.0100    0.0100    0.0100
    0.0100    0.0100    0.0100    0.0100    0.0100    0.0100    0.0100    0.0100
    0.0100    0.0100    0.0100    0.0100    0.0100    0.0100    0.0100    0.0100
    0.0100    0.0100    0.0100    0.0100    0.0100    0.0100    0.0100    0.0100
    0.0100    0.0100    0.0100    0.0100    0.0100    0.0100    0.0100    0.0100
    0.0100    0.0100    0.0100    0.0100    0.0100    0.0100    0.0100    0.0100
    0.0100    0.0100    0.0100    0.0100    0.0100    0.0100    0.0100    0.0100
    0.0100    0.0100    0.0100    0.0100    0.0100    0.0100    0.0100    0.0100
    0.0100    0.0100    0.0100    0.0100    0.0100    0.0100    0.0100    0.0100
    0.0100    0.0100    0.0100    0.0100    0.0100    0.0100    0.0100    0.0100
    0.0100    0.0100    0.0100    0.0100    0.0100    0.0100    0.0100    0.0100
    0.0100    0.0100    0.0100    0.0100    0.0100    0.0100    0.0100    0.0100
    0.0100    0.0100    0.0100    0.0100    0.0100    0.0100    0.0100    0.0100
    0.0100    0.0100    0.0100    0.0100    0.0100    0.0100    0.0100    0.0100
    0.0100    0.0100    0.0100    0.0100    0.0100    0.0100    0.0100    0.0100
    0.0100    0.0100    0.0100    0.0100    0.0100    0.0100    0.0100    0.0100
    0.0100    0.0100
   </PP_RAB>
 </PP_MESH>
  <PP_LOCAL type="real"  size=" 602" columns="4">
   -1.5477468977E+01   -2.7324392973E+01   -2.9782345566E+01   -2.7767388805E+01
   -2.6195584738E+01   -2.5542861880E+01   -2.5276294367E+01   -2.5144829399E+01
   -2.5059579659E+01   -2.4989528517E+01   -2.4923311832E+01   -2.4856476245E+01
   -2.4787146143E+01   -2.4714474972E+01   -2.4638058414E+01   -2.4557697869E+01
   -2.4473298719E+01   -2.4384823413E+01   -2.4292268116E+01   -2.4195650120E+01
   -2.4095000446E+01   -2.3990359167E+01   -2.3881772210E+01   -2.3769289057E+01
   -2.3652961011E+01   -2.3532839844E+01   -2.3408976724E+01   -2.3281421360E+01
   -2.3150221310E+01   -2.3015421452E+01   -2.2877063569E+01   -2.2735186076E+01
   -2.2589823854E+01   -2.2441008210E+01   -2.2288766939E+01   -2.2133124532E+01
   -2.1974102457E+01   -2.1811719599E+01   -2.1645992791E+01   -2.1476937450E+01
   -2.1304568340E+01   -2.1128900413E+01   -2.0949949739E+01   -2.0767734522E+01
   -2.0582276162E+01   -2.0393600368E+01   -2.0201738292E+01   -2.0006727663E+01
   -1.9808613876E+01   -1.9607451068E+01   -1.9403303174E+01   -1.9196244743E+01
   -1.8986361617E+01   -1.8773751894E+01   -1.8558525992E+01   -1.8340807162E+01
   -1.8120731547E+01   -1.7898447890E+01   -1.7674117421E+01   -1.7447913057E+01
   -1.7220018739E+01   -1.6990628533E+01   -1.6759945130E+01   -1.6528179076E+01
   -1.6295546870E+01   -1.6062269594E+01   -1.5828571461E+01   -1.5594678052E+01
   -1.5360814860E+01   -1.5127205772E+01   -1.4894071606E+01   -1.4661628903E+01
   -1.4430088792E+01   -1.4199656058E+01   -1.3970528303E+01   -1.3742895224E+01
   -1.3516938355E+01   -1.3292830722E+01   -1.3070736720E+01   -1.2850812115E+01
   -1.2633204161E+01   -1.2418051812E+01   -1.2205485995E+01   -1.1995629942E+01
   -1.1788599541E+01   -1.1584503703E+01   -1.1383444728E+01   -1.1185518645E+01
   -1.0990815535E+01   -1.0799419817E+01   -1.0611410493E+01   -1.0426861352E+01
   -1.0245841141E+01   -1.0068413676E+01   -9.8946379323E+00   -9.7245680859E+00
   -9.5582535264E+00   -9.3957390062E+00   -9.2370641453E+00   -9.0822637260E+00
   -8.9313675523E+00   -8.7844003324E+00   -8.6413815779E+00   -8.5023256728E+00
   -8.3672414787E+00   -8.2361319944E+00   -8.1089947620E+00   -7.9858215764E+00
   -7.8665987003E+00   -7.7513061799E+00   -7.6399175688E+00   -7.5324006017E+00
   -7.4287170592E+00   -7.3288227456E+00   -7.2326658677E+00   -7.1401888582E+00
   -7.0513282531E+00   -6.9660137762E+00   -6.8841675317E+00   -6.8057056592E+00
   -6.7305390121E+00   -6.6585689368E+00   -6.5896908110E+00   -6.5237944650E+00
   -6.4607608247E+00   -6.4004630980E+00   -6.3427691680E+00   -6.2875378105E+00
   -6.2346187529E+00   -6.1838567238E+00   -6.1350858423E+00   -6.0881305667E+00
   -6.0428108557E+00   -5.9989315760E+00   -5.9563018739E+00   -5.9147249878E+00
   -5.8740370536E+00   -5.8340831668E+00   -5.7947320866E+00   -5.7558838066E+00
   -5.7174427527E+00   -5.6793530761E+00   -5.6415637619E+00   -5.6040426965E+00
   -5.5667749928E+00   -5.5297469228E+00   -5.4929637112E+00   -5.4564282638E+00
   -5.4201521955E+00   -5.3841477741E+00   -5.3484295396E+00   -5.3130120785E+00
   -5.2779105659E+00   -5.2431380847E+00   -5.2087081915E+00   -5.1746314481E+00
   -5.1409182521E+00   -5.1075764790E+00   -5.0746128917E+00   -5.0420327126E+00
   -5.0098392753E+00   -4.9780353204E+00   -4.9466212706E+00   -4.9155976412E+00
   -4.8849625533E+00   -4.8547146028E+00   -4.8248501916E+00   -4.7953663228E+00
   -4.7662581823E+00   -4.7375215062E+00   -4.7091506720E+00   -4.6811404592E+00
   -4.6534847522E+00   -4.6261776585E+00   -4.5992128032E+00   -4.5725838773E+00
   -4.5462844112E+00   -4.5203079036E+00   -4.4946478992E+00   -4.4692978981E+00
   -4.4442515244E+00   -4.4195024428E+00   -4.3950443916E+00   -4.3708713315E+00
   -4.3469771307E+00   -4.3233561448E+00   -4.3000023802E+00   -4.2769105927E+00
   -4.2540751126E+00   -4.2314909275E+00   -4.2091528328E+00   -4.1870559746E+00
   -4.1651956747E+00   -4.1435672010E+00   -4.1221664144E+00   -4.1009887053E+00
   -4.0800303394E+00   -4.0592871449E+00   -4.0387554470E+00   -4.0184316203E+00
   -3.9983120170E+00   -3.9783935042E+00   -3.9586725412E+00   -3.9391462647E+00
   -3.9198115421E+00   -3.9006654703E+00   -3.8817053769E+00   -3.8629283341E+00
   -3.8443319617E+00   -3.8259135965E+00   -3.8076708201E+00   -3.7896013199E+00
   -3.7717026269E+00   -3.7539726370E+00   -3.7364090596E+00   -3.7190097434E+00
   -3.7017726254E+00   -3.6846955167E+00   -3.6677764559E+00   -3.6510133854E+00
   -3.6344042806E+00   -3.6179471887E+00   -3.6016401035E+00   -3.5854810749E+00
   -3.5694681444E+00   -3.5535993312E+00   -3.5378727398E+00   -3.5222863844E+00
   -3.5068383741E+00   -3.4915269703E+00   -3.4763502626E+00   -3.4613065798E+00
   -3.4463942648E+00   -3.4316115920E+00   -3.4169569188E+00   -3.4024285517E+00
   -3.3880247672E+00   -3.3737440896E+00   -3.3595849224E+00   -3.3455456969E+00
   -3.3316249364E+00   -3.3178210774E+00   -3.3041326374E+00   -3.2905582043E+00
   -3.2770962736E+00   -3.2637454490E+00   -3.2505043664E+00   -3.2373715747E+00
   -3.2243457535E+00   -3.2114255903E+00   -3.1986096896E+00   -3.1858967973E+00
   -3.1732856542E+00   -3.1607749207E+00   -3.1483634008E+00   -3.1360498903E+00
   -3.1238331067E+00   -3.1117119036E+00   -3.0996851338E+00   -3.0877515736E+00
   -3.0759101174E+00   -3.0641596773E+00   -3.0524990903E+00   -3.0409272833E+00
   -3.0294432293E+00   -3.0180458288E+00   -3.0067340322E+00   -2.9955068756E+00
   -2.9843633257E+00   -2.9733023477E+00   -2.9623230421E+00   -2.9514244449E+00
   -2.9406055280E+00   -2.9298654572E+00   -2.9192033229E+00   -2.9086181497E+00
   -2.8981091154E+00   -2.8876753764E+00   -2.8773160286E+00   -2.8670302370E+00
   -2.8568172300E+00   -2.8466761789E+00   -2.8366062277E+00   -2.8266066756E+00
   -2.8166767555E+00   -2.8068156351E+00   -2.7970226322E+00   -2.7872970399E+00
   -2.7776381027E+00   -2.7680450991E+00   -2.7585173970E+00   -2.7490543163E+00
   -2.7396551053E+00   -2.7303191888E+00   -2.7210459310E+00   -2.7118346568E+00
   -2.7026847368E+00   -2.6935956102E+00   -2.6845666748E+00   -2.6755972644E+00
   -2.6666868674E+00   -2.6578349224E+00   -2.6490408387E+00   -2.6403040399E+00
   -2.6316240357E+00   -2.6230002915E+00   -2.6144322274E+00   -2.6059193575E+00
   -2.5974611946E+00   -2.5890572296E+00   -2.5807069106E+00   -2.5724098107E+00
   -2.5641654513E+00   -2.5559733347E+00   -2.5478329753E+00   -2.5397439514E+00
   -2.5317058077E+00   -2.5237180602E+00   -2.5157802749E+00   -2.5078920358E+00
   -2.5000529075E+00   -2.4922624221E+00   -2.4845201831E+00   -2.4768257811E+00
   -2.4691787986E+00   -2.4615787838E+00   -2.4540253663E+00   -2.4465181449E+00
   -2.4390567145E+00   -2.4316406471E+00   -2.4242695821E+00   -2.4169431302E+00
   -2.4096608977E+00   -2.4024224760E+00   -2.3952275121E+00   -2.3880756283E+00
   -2.3809664422E+00   -2.3738995587E+00   -2.3668746343E+00   -2.3598913020E+00
   -2.3529491911E+00   -2.3460479148E+00   -2.3391871420E+00   -2.3323665165E+00
   -2.3255856806E+00   -2.3188442508E+00   -2.3121419122E+00   -2.3054783204E+00
   -2.2988531312E+00   -2.2922659659E+00   -2.2857165237E+00   -2.2792044767E+00
   -2.2727294942E+00   -2.2662912082E+00   -2.2598893247E+00   -2.2535235433E+00
   -2.2471935506E+00   -2.2408990002E+00   -2.2346395919E+00   -2.2284150639E+00
   -2.2222251242E+00   -2.2160694683E+00   -2.2099477827E+00   -2.2038598291E+00
   -2.1978053318E+00   -2.1917840153E+00   -2.1857955713E+00   -2.1798397640E+00
   -2.1739163327E+00   -2.1680250136E+00   -2.1621655213E+00   -2.1563376011E+00
   -2.1505410203E+00   -2.1447755279E+00   -2.1390408686E+00   -2.1333367626E+00
   -2.1276630036E+00   -2.1220193519E+00   -2.1164055679E+00   -2.1108213893E+00
   -2.1052665912E+00   -2.0997409596E+00   -2.0942442661E+00   -2.0887762796E+00
   -2.0833367418E+00   -2.0779254678E+00   -2.0725422396E+00   -2.0671868395E+00
   -2.0618590326E+00   -2.0565586038E+00   -2.0512853643E+00   -2.0460391061E+00
   -2.0408196217E+00   -2.0356266749E+00   -2.0304600880E+00   -2.0253196691E+00
   -2.0202052199E+00   -2.0151165385E+00   -2.0100534025E+00   -2.0050156523E+00
   -2.0000030990E+00   -1.9950155537E+00   -1.9900528158E+00   -1.9851146899E+00
   -1.9802010173E+00   -1.9753116178E+00   -1.9704463115E+00   -1.9656049008E+00
   -1.9607872123E+00   -1.9559930895E+00   -1.9512223606E+00   -1.9464748539E+00
   -1.9417503771E+00   -1.9370487734E+00   -1.9323698900E+00   -1.9277135633E+00
   -1.9230796294E+00   -1.9184679026E+00   -1.9138782381E+00   -1.9093104884E+00
   -1.9047644975E+00   -1.9002401093E+00   -1.8957371459E+00   -1.8912554699E+00
   -1.8867949408E+00   -1.8823554098E+00   -1.8779367281E+00   -1.8735387272E+00
   -1.8691612728E+00   -1.8648042327E+00   -1.8604674651E+00   -1.8561508281E+00
   -1.8518541638E+00   -1.8475773371E+00   -1.8433202255E+00   -1.8390826938E+00
   -1.8348646068E+00   -1.8306658183E+00   -1.8264861889E+00   -1.8223256068E+00
   -1.8181839431E+00   -1.8140610690E+00   -1.8099568515E+00   -1.8058711430E+00
   -1.8018038438E+00   -1.7977548310E+00   -1.7937239816E+00   -1.7897111726E+00
   -1.7857162590E+00   -1.7817391401E+00   -1.7777797032E+00   -1.7738378311E+00
   -1.7699134066E+00   -1.7660062999E+00   -1.7621163950E+00   -1.7582435938E+00
   -1.7543877846E+00   -1.7505488557E+00   -1.7467266942E+00   -1.7429211656E+00
   -1.7391321872E+00   -1.7353596525E+00   -1.7316034550E+00   -1.7278634881E+00
   -1.7241396316E+00   -1.7204317838E+00   -1.7167398544E+00   -1.7130637420E+00
   -1.7094033448E+00   -1.7057585614E+00   -1.7021292665E+00   -1.6985153863E+00
   -1.6949168243E+00   -1.6913334837E+00   -1.6877652676E+00   -1.6842120706E+00
   -1.6806737906E+00   -1.6771503506E+00   -1.6736416581E+00   -1.6701476209E+00
   -1.6666681466E+00   -1.6632031275E+00   -1.6597524814E+00   -1.6563161283E+00
   -1.6528939800E+00   -1.6494859485E+00   -1.6460919458E+00   -1.6427118637E+00
   -1.6393456356E+00   -1.6359931797E+00   -1.6326544123E+00   -1.6293292493E+00
   -1.6260176054E+00   -1.6227193778E+00   -1.6194345069E+00   -1.6161629127E+00
   -1.6129045151E+00   -1.6096592341E+00   -1.6064269863E+00   -1.6032076774E+00
   -1.6000012493E+00   -1.5968076257E+00   -1.5936267302E+00   -1.5904584866E+00
   -1.5873028146E+00   -1.5841596253E+00   -1.5810288631E+00   -1.5779104552E+00
   -1.5748043290E+00   -1.5717104115E+00   -1.5686286273E+00   -1.5655588892E+00
   -1.5625011455E+00   -1.5594553268E+00   -1.5564213638E+00   -1.5533991872E+00
   -1.5503887270E+00   -1.5473898951E+00   -1.5444026446E+00   -1.5414269094E+00
   -1.5384626235E+00   -1.5355097207E+00   -1.5325681348E+00   -1.5296377836E+00
   -1.5267186161E+00   -1.5238105728E+00   -1.5209135906E+00   -1.5180276066E+00
   -1.5151525575E+00   -1.5122883695E+00   -1.5094349837E+00   -1.5065923482E+00
   -1.5037604031E+00   -1.5009390881E+00   -1.4981283433E+00   -1.4953281043E+00
   -1.4925383011E+00   -1.4897588911E+00   -1.4869898169E+00   -1.4842310213E+00
   -1.4814824468E+00   -1.4787440363E+00   -1.4760157177E+00   -1.4732974468E+00
   -1.4705891727E+00   -1.4678908407E+00   -1.4652023962E+00   -1.4625237845E+00
   -1.4598549454E+00   -1.4571958183E+00   -1.4545463634E+00   -1.4519065286E+00
   -1.4492762619E+00   -1.4466555110E+00   -1.4440442241E+00   -1.4414423359E+00
   -1.4388498046E+00   -1.4362665850E+00   -1.4336926274E+00   -1.4311278823E+00
   -1.4285722999E+00   -1.4260258291E+00   -1.4234884065E+00   -1.4209600000E+00
   -1.4184405624E+00   -1.4159300463E+00   -1.4134284044E+00   -1.4109355893E+00
   -1.4084515477E+00   -1.4059762282E+00   -1.4035095964E+00   -1.4010516072E+00
   -1.3986022154E+00   -1.3961613759E+00   -1.3937290435E+00   -1.3913051642E+00
   -1.3888896954E+00   -1.3864826015E+00   -1.3840838394E+00   -1.3816933662E+00
   -1.3793111388E+00   -1.3769371141E+00   -1.3745712387E+00   -1.3722134757E+00
   -1.3698637895E+00   -1.3675221392E+00   -1.3651884837E+00   -1.3628627820E+00
   -1.3605449931E+00   -1.3582350654E+00   -1.3559329645E+00   -1.3536386564E+00
   -1.3513521020E+00   -1.3490732621E+00   -1.3468020977E+00   -1.3445385696E+00
   -1.3422826293E+00   -1.3400342423E+00   -1.3377933771E+00   -1.3355599965E+00
   -1.3333340631E+00   -1.3311155397E+00
  </PP_LOCAL>
 <PP_NONLOCAL>
   <PP_BETA.1
       type="real"
       size=" 602"
       columns="4"
       index="1"
       angular_momentum="0"
       cutoff_radius_index=" 360"
       cutoff_radius="    3.5900000000E+00" >
    0.0000000000E+00   -2.8841736740E-02   -5.7679700157E-02   -8.6510048419E-02
   -1.1532880303E-01   -1.4413178139E-01   -1.7291453039E-01   -2.0167226144E-01
   -2.3039978723E-01   -2.5909146053E-01   -2.8774111545E-01   -3.1634201134E-01
   -3.4488677974E-01   -3.7336737464E-01   -4.0177502622E-01   -4.3010019855E-01
   -4.5833255122E-01   -4.8646090534E-01   -5.1447321404E-01   -5.4235653759E-01
   -5.7009702342E-01   -5.9767989113E-01   -6.2508942258E-01   -6.5230895724E-01
   -6.7932089284E-01   -7.0610669141E-01   -7.3264689061E-01   -7.5892112067E-01
   -7.8490812659E-01   -8.1058579577E-01   -8.3593119106E-01   -8.6092058898E-01
   -8.8552952315E-01   -9.0973283265E-01   -9.3350471611E-01   -9.5681878859E-01
   -9.7964814634E-01   -1.0019654323E+00   -1.0237429081E+00   -1.0449525307E+00
   -1.0655660300E+00   -1.0855549925E+00   -1.1048909467E+00   -1.1235454528E+00
   -1.1414901936E+00   -1.1586970687E+00   -1.1751382906E+00   -1.1907864820E+00
   -1.2056147736E+00   -1.2195969045E+00   -1.2327073278E+00   -1.2449213050E+00
   -1.2562149999E+00   -1.2665656036E+00   -1.2759514043E+00   -1.2843519027E+00
   -1.2917479077E+00   -1.2981216179E+00   -1.3034567334E+00   -1.3077385247E+00
   -1.3109539290E+00   -1.3130916419E+00   -1.3141421523E+00   -1.3140978881E+00
   -1.3129532218E+00   -1.3107045400E+00   -1.3073503532E+00   -1.3028912932E+00
   -1.2973301675E+00   -1.2906720157E+00   -1.2829241456E+00   -1.2740961357E+00
   -1.2641998629E+00   -1.2532495073E+00   -1.2412615620E+00   -1.2282548327E+00
   -1.2142504052E+00   -1.1992716289E+00   -1.1833440842E+00   -1.1664955415E+00
   -1.1487559102E+00   -1.1301571793E+00   -1.1107333490E+00   -1.0905203527E+00
   -1.0695559710E+00   -1.0478797354E+00   -1.0255328250E+00   -1.0025579532E+00
   -9.7899924704E-01   -9.5490211799E-01   -9.3031312559E-01   -9.0527983331E-01
   -8.7985065792E-01   -8.5407471242E-01   -8.2800164342E-01   -8.0168146341E-01
   -7.7516437895E-01   -7.4850067036E-01   -7.2174037077E-01   -6.9493318906E-01