
     Program PHONON v.5.3.0 (svn rev. 12275) starts on  4Apr2016 at 21:57:31 

     This program is part of the open-source Quantum ESPRESSO suite
     for quantum simulation of materials; please cite
         "P. Giannozzi et al., J. Phys.:Condens. Matter 21 395502 (2009);
          URL http://www.quantum-espresso.org", 
     in publications or presentations arising from this work. More details at
     http://www.quantum-espresso.org/quote

     Serial version

     Reading data from directory:
     /home/giannozz/tmp/graphite.save

   Info: using nr1, nr2, nr3 values from input

   Info: using nr1, nr2, nr3 values from input

     IMPORTANT: XC functional enforced from input :
     Exchange-correlation      =  SLA  PW   PBE  PBE ( 1  4  3  4 0 0)
     Any further DFT definition will be discarded
     Please, verify this is what you really want

               file C.pbe-rrkjus.UPF: wavefunction(s)  2S 2P renormalized
 
     G-vector sticks info
     --------------------
     sticks:   dense  smooth     PW     G-vecs:    dense   smooth      PW
     Sum         265     187     61                 9111     4943    1045
 

     Calculation of q =    0.3333333   0.5773503   0.0000000
 
     G-vector sticks info
     --------------------
     sticks:   dense  smooth     PW     G-vecs:    dense   smooth      PW
     Sum         265     187     85                 9111     4943    1553
 


     bravais-lattice index     =            4
     lattice parameter (alat)  =       4.6463  a.u.
     unit-cell volume          =     224.3370 (a.u.)^3
     number of atoms/cell      =            4
     number of atomic types    =            1
     number of electrons       =        16.00
     number of Kohn-Sham states=            8
     kinetic-energy cutoff     =      30.0000  Ry
     charge density cutoff     =     180.0000  Ry
     Exchange-correlation      =  SLA  PW   PBE  PBE ( 1  4  3  4 0 0)

     celldm(1)=   4.646303  celldm(2)=   0.000000  celldm(3)=   2.582543
     celldm(4)=   0.000000  celldm(5)=   0.000000  celldm(6)=   0.000000

     crystal axes: (cart. coord. in units of alat)
               a(1) = (   1.000000   0.000000   0.000000 )  
               a(2) = (  -0.500000   0.866025   0.000000 )  
               a(3) = (   0.000000   0.000000   2.582543 )  

     reciprocal axes: (cart. coord. in units 2 pi/alat)
               b(1) = (  1.000000  0.577350  0.000000 )  
               b(2) = (  0.000000  1.154701  0.000000 )  
               b(3) = (  0.000000  0.000000  0.387215 )  


     PseudoPot. # 1 for C  read from file:
     /home/giannozz/Work/Pseudo/Web/UPF/C.pbe-rrkjus.UPF
     MD5 check sum: 00fb224312de0c5b6853bd333518df6f
     Pseudo is Ultrasoft, Zval =  4.0
     Generated by new atomic code, or converted to UPF format
     Using radial grid of  627 points,  4 beta functions with: 
                l(1) =   0
                l(2) =   0
                l(3) =   1
                l(4) =   1
     Q(r) pseudized with 0 coefficients 


     atomic species   valence    mass     pseudopotential
        C              4.00    12.01070     C ( 1.00)

     24 Sym. Ops., with inversion, found



   Cartesian axes

     site n.     atom                  positions (alat units)
         1           C   tau(   1) = (   0.0000000   0.0000000   0.0000000  )
         2           C   tau(   2) = (   0.0000000   0.5773503   0.0000000  )
         3           C   tau(   3) = (   0.0000000   0.0000000   1.2912714  )
         4           C   tau(   4) = (   0.5000000   0.2886751   1.2912714  )

     number of k points=    20
                       cart. coord. in units 2pi/alat
        k(    1) = (   0.1250000   0.2165064   0.0968038), wk =   0.1250000
        k(    2) = (   0.4583333   0.7938566   0.0968038), wk =   0.0000000
        k(    3) = (   0.1250000   0.5051815   0.0968038), wk =   0.2500000
        k(    4) = (   0.4583333   1.0825318   0.0968038), wk =   0.0000000
        k(    5) = (   0.1250000  -0.3608439   0.0968038), wk =   0.2500000
        k(    6) = (   0.4583333   0.2165064   0.0968038), wk =   0.0000000
        k(    7) = (   0.1250000  -0.0721688   0.0968038), wk =   0.2500000
        k(    8) = (   0.4583333   0.5051815   0.0968038), wk =   0.0000000
        k(    9) = (   0.3750000   0.6495191   0.0968038), wk =   0.1250000
        k(   10) = (   0.7083333   1.2268693   0.0968038), wk =   0.0000000
        k(   11) = (   0.3750000  -0.2165064   0.0968038), wk =   0.2500000
        k(   12) = (   0.7083333   0.3608439   0.0968038), wk =   0.0000000
        k(   13) = (  -0.1250000  -0.2165064  -0.0968038), wk =   0.1250000
        k(   14) = (   0.2083333   0.3608439  -0.0968038), wk =   0.0000000
        k(   15) = (  -0.1250000  -0.5051815  -0.0968038), wk =   0.2500000
        k(   16) = (   0.2083333   0.0721688  -0.0968038), wk =   0.0000000
        k(   17) = (  -0.1250000   0.3608439  -0.0968038), wk =   0.2500000
        k(   18) = (   0.2083333   0.9381942  -0.0968038), wk =   0.0000000
        k(   19) = (  -0.3750000  -0.6495191  -0.0968038), wk =   0.1250000
        k(   20) = (  -0.0416667  -0.0721688  -0.0968038), wk =   0.0000000

     Dense  grid:     9111 G-vectors     FFT dimensions: (  20,  20,  54)

     Smooth grid:     4943 G-vectors     FFT dimensions: (  18,  18,  45)

     Largest allocated arrays     est. size (Mb)     dimensions
        Kohn-Sham Wavefunctions         0.08 Mb     (     630,    8)
        NL pseudopotentials             0.31 Mb     (     630,   32)
        Each V/rho on FFT grid          0.33 Mb     (   21600)
        Each G-vector array             0.07 Mb     (    9111)
        G-vector shells                 0.00 Mb     (     525)
     Largest temporary arrays     est. size (Mb)     dimensions
        Auxiliary wavefunctions         0.31 Mb     (     630,   32)
        Each subspace H/S matrix        0.02 Mb     (      32,   32)
        Each <psi_i|beta_j> matrix      0.00 Mb     (      32,    8)

     The potential is recalculated from file :
     /home/giannozz/tmp/_ph0/graphite.save/charge-density.dat

     Starting wfc are   16 atomic wfcs

     Band Structure Calculation
     Davidson diagonalization with overlap

     ethr =  6.25E-11,  avg # of iterations = 10.7

     total cpu time spent up to now is        1.2 secs

     End of band structure calculation

          k = 0.1250 0.2165 0.0968 (   619 PWs)   bands (ev):

   -10.8945 -10.5952   0.5344   1.4501   1.5006   2.2444   2.5206   2.5563

          k = 0.4583 0.7939 0.0968 (   625 PWs)   bands (ev):

    -6.5356  -6.4138  -5.5003  -5.4109   0.6934   0.7726   5.0696   5.7287

          k = 0.1250 0.5052 0.0968 (   628 PWs)   bands (ev):

    -7.3330  -7.1045  -4.4133  -4.2383   0.2015   0.2933   4.5392   5.6590

          k = 0.4583 1.0825 0.0968 (   629 PWs)   bands (ev):

    -8.2462  -7.9957  -2.8279  -2.6849  -0.1843  -0.0894   3.6192   5.0272

          k = 0.1250-0.3608 0.0968 (   627 PWs)   bands (ev):

    -9.4327  -9.1599  -1.3776  -1.2545   0.9775   1.0547   2.2612   3.8298

          k = 0.4583 0.2165 0.0968 (   626 PWs)   bands (ev):

    -7.5585  -7.3254  -4.6009  -4.4192   1.1797   1.2477   4.2533   5.3759

          k = 0.1250-0.0722 0.0968 (   606 PWs)   bands (ev):

   -11.6367 -11.3241  -0.3581   1.4069   3.2479   3.3034   3.9269   3.9682

          k = 0.4583 0.5052 0.0968 (   630 PWs)   bands (ev):

    -6.8871  -6.6678  -4.0859  -3.9307  -1.2576  -1.1467   5.0931   6.2050

          k = 0.3750 0.6495 0.0968 (   630 PWs)   bands (ev):

    -5.6886  -5.5758  -4.7821  -4.7335  -2.1298  -2.0155   6.2547   6.8861

          k = 0.7083 1.2269 0.0968 (   630 PWs)   bands (ev):

    -6.2405  -6.0372  -4.0058  -3.9105  -2.3729  -2.3113   5.8410   6.8921

          k = 0.3750-0.2165 0.0968 (   623 PWs)   bands (ev):

    -8.7147  -8.4553  -3.0976  -2.9327   1.5908   1.6536   3.0578   4.5017

          k = 0.7083 0.3608 0.0968 (   623 PWs)   bands (ev):

    -9.6732  -9.3960  -1.4469  -1.3091   1.8949   1.9582   1.9748   3.5641

          k =-0.1250-0.2165-0.0968 (   619 PWs)   bands (ev):

   -10.8945 -10.5952   0.5344   1.4501   1.5006   2.2444   2.5206   2.5563

          k = 0.2083 0.3608-0.0968 (   625 PWs)   bands (ev):

    -8.9545  -8.6904  -1.5568  -1.4830  -0.0768  -0.0219   2.8218   4.3402

          k =-0.1250-0.5052-0.0968 (   628 PWs)   bands (ev):

    -7.3330  -7.1045  -4.4133  -4.2383   0.2015   0.2933   4.5392   5.6590

          k = 0.2083 0.0722-0.0968 (   613 PWs)   bands (ev):

   -11.1411 -10.8374   0.2386   1.8028   1.8831   1.9688   3.1533   3.2033

          k =-0.1250 0.3608-0.0968 (   627 PWs)   bands (ev):

    -9.4327  -9.1599  -1.3776  -1.2545   0.9775   1.0547   2.2612   3.8298

          k = 0.2083 0.9382-0.0968 (   621 PWs)   bands (ev):

   -10.4034 -10.1130   0.1983   0.2996   1.1198   2.1292   2.1908   2.7864

          k =-0.3750-0.6495-0.0968 (   630 PWs)   bands (ev):

    -5.6886  -5.5758  -4.7821  -4.7335  -2.1298  -2.0155   6.2547   6.8861

          k =-0.0417-0.0722-0.0968 (   594 PWs)   bands (ev):

   -11.8856 -11.5684  -0.6589   1.1231   4.1564   4.1834   4.3737   4.3973

     highest occupied level (ev):     6.8921

     Writing output data file graphite.save

                                                                                

     bravais-lattice index     =            4
     lattice parameter (alat)  =       4.6463  a.u.
     unit-cell volume          =     224.3370 (a.u.)^3
     number of atoms/cell      =            4
     number of atomic types    =            1
     kinetic-energy cut-off    =      30.0000  Ry
     charge density cut-off    =     180.0000  Ry
     convergence threshold     =      1.0E-18
     beta                      =       0.7000
     number of iterations used =            4
     Exchange-correlation      =  SLA  PW   PBE  PBE ( 1  4  3  4 0 0)


     celldm(1)=    4.64630  celldm(2)=    0.00000  celldm(3)=    2.58254
     celldm(4)=    0.00000  celldm(5)=    0.00000  celldm(6)=    0.00000

     crystal axes: (cart. coord. in units of alat)
               a(1) = (  1.0000  0.0000  0.0000 )  
               a(2) = ( -0.5000  0.8660  0.0000 )  
               a(3) = (  0.0000  0.0000  2.5825 )  

     reciprocal axes: (cart. coord. in units 2 pi/alat)
               b(1) = (  1.0000  0.5774  0.0000 )  
               b(2) = (  0.0000  1.1547  0.0000 )  
               b(3) = (  0.0000  0.0000  0.3872 )  


     Atoms inside the unit cell: 

     Cartesian axes

     site n.  atom      mass           positions (alat units)
        1     C   12.0107   tau(    1) = (    0.00000    0.00000    0.00000  )
        2     C   12.0107   tau(    2) = (    0.00000    0.57735    0.00000  )
        3     C   12.0107   tau(    3) = (    0.00000    0.00000    1.29127  )
        4     C   12.0107   tau(    4) = (    0.50000    0.28868    1.29127  )

     Computing dynamical matrix for 
                    q = (   0.3333333   0.5773503   0.0000000 )
 
     12 Sym.Ops. (no q -> -q+G )


     G cutoff =   98.4301  (   9111 G-vectors)     FFT grid: ( 20, 20, 54)
     G cutoff =   65.6201  (   4943 G-vectors)  smooth grid: ( 18, 18, 45)
     number of k points=    20
                       cart. coord. in units 2pi/alat
        k(    1) = (   0.1250000   0.2165064   0.0968038), wk =   0.1250000
        k(    2) = (   0.4583333   0.7938566   0.0968038), wk =   0.0000000
        k(    3) = (   0.1250000   0.5051815   0.0968038), wk =   0.2500000
        k(    4) = (   0.4583333   1.0825318   0.0968038), wk =   0.0000000
        k(    5) = (   0.1250000  -0.3608439   0.0968038), wk =   0.2500000
        k(    6) = (   0.4583333   0.2165064   0.0968038), wk =   0.0000000
        k(    7) = (   0.1250000  -0.0721688   0.0968038), wk =   0.2500000
        k(    8) = (   0.4583333   0.5051815   0.0968038), wk =   0.0000000
        k(    9) = (   0.3750000   0.6495191   0.0968038), wk =   0.1250000
        k(   10) = (   0.7083333   1.2268693   0.0968038), wk =   0.0000000
        k(   11) = (   0.3750000  -0.2165064   0.0968038), wk =   0.2500000
        k(   12) = (   0.7083333   0.3608439   0.0968038), wk =   0.0000000
        k(   13) = (  -0.1250000  -0.2165064  -0.0968038), wk =   0.1250000
        k(   14) = (   0.2083333   0.3608439  -0.0968038), wk =   0.0000000
        k(   15) = (  -0.1250000  -0.5051815  -0.0968038), wk =   0.2500000
        k(   16) = (   0.2083333   0.0721688  -0.0968038), wk =   0.0000000
        k(   17) = (  -0.1250000   0.3608439  -0.0968038), wk =   0.2500000
        k(   18) = (   0.2083333   0.9381942  -0.0968038), wk =   0.0000000
        k(   19) = (  -0.3750000  -0.6495191  -0.0968038), wk =   0.1250000
        k(   20) = (  -0.0416667  -0.0721688  -0.0968038), wk =   0.0000000

     PseudoPot. # 1 for C  read from file:
     /home/giannozz/Work/Pseudo/Web/UPF/C.pbe-rrkjus.UPF
     MD5 check sum: 00fb224312de0c5b6853bd333518df6f
     Pseudo is Ultrasoft, Zval =  4.0
     Generated by new atomic code, or converted to UPF format
     Using radial grid of  627 points,  4 beta functions with: 
                l(1) =   0
                l(2) =   0
                l(3) =   1
                l(4) =   1
     Q(r) pseudized with 0 coefficients 



     Atomic displacements:
     There are   8 irreducible representations

     Representation     1      2 modes -  To be done

     Representation     2      2 modes -  To be done

     Representation     3      1 modes -  To be done

     Representation     4      1 modes -  To be done

     Representation     5      2 modes -  To be done

     Representation     6      2 modes -  To be done

     Representation     7      1 modes -  To be done

     Representation     8      1 modes -  To be done



     Alpha used in Ewald sum =   1.8000

     -------------------------------------
     Parameters for Dispersion Correction:
     -------------------------------------
       atom      VdW radius       C_6     

        C          2.744         60.710
     PHONON       :     3.54s CPU         3.70s WALL



     Representation #  1 modes #   1  2

     Self-consistent Calculation

      iter #   1 total cpu time :     4.5 secs   av.it.:   5.1
      thresh= 1.000E-02 alpha_mix =  0.700 |ddv_scf|^2 =  5.386E-06

      iter #   2 total cpu time :     5.5 secs   av.it.:   8.8
      thresh= 2.321E-04 alpha_mix =  0.700 |ddv_scf|^2 =  3.660E-06

      iter #   3 total cpu time :     6.5 secs   av.it.:   8.4
      thresh= 1.913E-04 alpha_mix =  0.700 |ddv_scf|^2 =  1.019E-07

      iter #   4 total cpu time :     7.6 secs   av.it.:   8.5
      thresh= 3.191E-05 alpha_mix =  0.700 |ddv_scf|^2 =  3.390E-10

      iter #   5 total cpu time :     8.6 secs   av.it.:   8.4
      thresh= 1.841E-06 alpha_mix =  0.700 |ddv_scf|^2 =  8.222E-12

      iter #   6 total cpu time :     9.9 secs   av.it.:   8.3
      thresh= 2.867E-07 alpha_mix =  0.700 |ddv_scf|^2 =  2.230E-14

      iter #   7 total cpu time :    10.9 secs   av.it.:   8.5
      thresh= 1.493E-08 alpha_mix =  0.700 |ddv_scf|^2 =  3.109E-15

      iter #   8 total cpu time :    11.9 secs   av.it.:   8.8
      thresh= 5.576E-09 alpha_mix =  0.700 |ddv_scf|^2 =  1.907E-15

      iter #   9 total cpu time :    13.0 secs   av.it.:   8.3
      thresh= 4.367E-09 alpha_mix =  0.700 |ddv_scf|^2 =  1.374E-17

      iter #  10 total cpu time :    14.2 secs   av.it.:   8.4
      thresh= 3.707E-10 alpha_mix =  0.700 |ddv_scf|^2 =  9.615E-19

     End of self-consistent calculation

     Convergence has been achieved 


     Representation #  2 modes #   3  4

     Self-consistent Calculation

      iter #   1 total cpu time :    15.0 secs   av.it.:   5.0
      thresh= 1.000E-02 alpha_mix =  0.700 |ddv_scf|^2 =  3.375E-06

      iter #   2 total cpu time :    16.0 secs   av.it.:   8.8
      thresh= 1.837E-04 alpha_mix =  0.700 |ddv_scf|^2 =  5.014E-07

      iter #   3 total cpu time :    17.0 secs   av.it.:   8.4
      thresh= 7.081E-05 alpha_mix =  0.700 |ddv_scf|^2 =  1.505E-08

      iter #   4 total cpu time :    18.1 secs   av.it.:   8.5
      thresh= 1.227E-05 alpha_mix =  0.700 |ddv_scf|^2 =  5.027E-10

      iter #   5 total cpu time :    19.3 secs   av.it.:   8.4
      thresh= 2.242E-06 alpha_mix =  0.700 |ddv_scf|^2 =  1.761E-12

      iter #   6 total cpu time :    20.3 secs   av.it.:   8.3
      thresh= 1.327E-07 alpha_mix =  0.700 |ddv_scf|^2 =  9.884E-15

      iter #   7 total cpu time :    21.3 secs   av.it.:   8.2
      thresh= 9.942E-09 alpha_mix =  0.700 |ddv_scf|^2 =  6.103E-16

      iter #   8 total cpu time :    22.3 secs   av.it.:   8.5
      thresh= 2.471E-09 alpha_mix =  0.700 |ddv_scf|^2 =  5.566E-17

      iter #   9 total cpu time :    23.3 secs   av.it.:   8.8
      thresh= 7.460E-10 alpha_mix =  0.700 |ddv_scf|^2 =  1.561E-17

      iter #  10 total cpu time :    24.6 secs   av.it.:   8.5
      thresh= 3.951E-10 alpha_mix =  0.700 |ddv_scf|^2 =  6.725E-19

     End of self-consistent calculation

     Convergence has been achieved 


     Representation #  3 mode #   5

     Self-consistent Calculation

      iter #   1 total cpu time :    25.0 secs   av.it.:   5.0
      thresh= 1.000E-02 alpha_mix =  0.700 |ddv_scf|^2 =  2.438E-05

      iter #   2 total cpu time :    25.5 secs   av.it.:   8.2
      thresh= 4.938E-04 alpha_mix =  0.700 |ddv_scf|^2 =  2.336E-05

      iter #   3 total cpu time :    26.0 secs   av.it.:   7.5
      thresh= 4.833E-04 alpha_mix =  0.700 |ddv_scf|^2 =  3.776E-08

      iter #   4 total cpu time :    26.5 secs   av.it.:   7.6
      thresh= 1.943E-05 alpha_mix =  0.700 |ddv_scf|^2 =  2.454E-10

      iter #   5 total cpu time :    27.0 secs   av.it.:   7.1
      thresh= 1.566E-06 alpha_mix =  0.700 |ddv_scf|^2 =  2.698E-13

      iter #   6 total cpu time :    27.5 secs   av.it.:   7.9
      thresh= 5.194E-08 alpha_mix =  0.700 |ddv_scf|^2 =  1.642E-14

      iter #   7 total cpu time :    28.0 secs   av.it.:   8.2
      thresh= 1.281E-08 alpha_mix =  0.700 |ddv_scf|^2 =  1.096E-14

      iter #   8 total cpu time :    28.5 secs   av.it.:   7.5
      thresh= 1.047E-08 alpha_mix =  0.700 |ddv_scf|^2 =  2.312E-17

      iter #   9 total cpu time :    29.1 secs   av.it.:   7.8
      thresh= 4.808E-10 alpha_mix =  0.700 |ddv_scf|^2 =  1.694E-18

      iter #  10 total cpu time :    29.7 secs   av.it.:   8.2
      thresh= 1.302E-10 alpha_mix =  0.700 |ddv_scf|^2 =  2.900E-20

     End of self-consistent calculation

     Convergence has been achieved 


     Representation #  4 mode #   6

     Self-consistent Calculation

      iter #   1 total cpu time :    30.1 secs   av.it.:   5.0
      thresh= 1.000E-02 alpha_mix =  0.700 |ddv_scf|^2 =  3.664E-06

      iter #   2 total cpu time :    30.6 secs   av.it.:   8.0
      thresh= 1.914E-04 alpha_mix =  0.700 |ddv_scf|^2 =  3.726E-08

      iter #   3 total cpu time :    31.1 secs   av.it.:   7.8
      thresh= 1.930E-05 alpha_mix =  0.700 |ddv_scf|^2 =  7.629E-10

      iter #   4 total cpu time :    31.5 secs   av.it.:   6.5
      thresh= 2.762E-06 alpha_mix =  0.700 |ddv_scf|^2 =  6.728E-13

      iter #   5 total cpu time :    32.0 secs   av.it.:   7.0
      thresh= 8.202E-08 alpha_mix =  0.700 |ddv_scf|^2 =  1.542E-14

      iter #   6 total cpu time :    32.4 secs   av.it.:   6.9
      thresh= 1.242E-08 alpha_mix =  0.700 |ddv_scf|^2 =  1.456E-16

      iter #   7 total cpu time :    32.9 secs   av.it.:   7.4
      thresh= 1.206E-09 alpha_mix =  0.700 |ddv_scf|^2 =  4.871E-19

     End of self-consistent calculation

     Convergence has been achieved 


     Representation #  5 modes #   7  8

     Self-consistent Calculation

      iter #   1 total cpu time :    33.7 secs   av.it.:   5.0
      thresh= 1.000E-02 alpha_mix =  0.700 |ddv_scf|^2 =  6.620E-07

      iter #   2 total cpu time :    34.9 secs   av.it.:   8.7
      thresh= 8.137E-05 alpha_mix =  0.700 |ddv_scf|^2 =  4.224E-09

      iter #   3 total cpu time :    35.9 secs   av.it.:   8.6
      thresh= 6.499E-06 alpha_mix =  0.700 |ddv_scf|^2 =  1.669E-10

      iter #   4 total cpu time :    36.9 secs   av.it.:   7.5
      thresh= 1.292E-06 alpha_mix =  0.700 |ddv_scf|^2 =  2.089E-13

      iter #   5 total cpu time :    37.9 secs   av.it.:   8.4
      thresh= 4.571E-08 alpha_mix =  0.700 |ddv_scf|^2 =  5.563E-15

      iter #   6 total cpu time :    38.9 secs   av.it.:   7.8
      thresh= 7.459E-09 alpha_mix =  0.700 |ddv_scf|^2 =  4.058E-17

      iter #   7 total cpu time :    40.2 secs   av.it.:   8.1
      thresh= 6.370E-10 alpha_mix =  0.700 |ddv_scf|^2 =  1.387E-18

      iter #   8 total cpu time :    41.2 secs   av.it.:   8.3
      thresh= 1.178E-10 alpha_mix =  0.700 |ddv_scf|^2 =  5.884E-21

     End of self-consistent calculation

     Convergence has been achieved 


     Representation #  6 modes #   9 10

     Self-consistent Calculation

      iter #   1 total cpu time :    42.0 secs   av.it.:   5.2
      thresh= 1.000E-02 alpha_mix =  0.700 |ddv_scf|^2 =  5.362E-06

      iter #   2 total cpu time :    43.1 secs   av.it.:   9.1
      thresh= 2.316E-04 alpha_mix =  0.700 |ddv_scf|^2 =  5.028E-06

      iter #   3 total cpu time :    44.3 secs   av.it.:   8.4
      thresh= 2.242E-04 alpha_mix =  0.700 |ddv_scf|^2 =  4.922E-08

      iter #   4 total cpu time :    45.3 secs   av.it.:   8.4
      thresh= 2.219E-05 alpha_mix =  0.700 |ddv_scf|^2 =  6.608E-10

      iter #   5 total cpu time :    46.4 secs   av.it.:   8.5
      thresh= 2.571E-06 alpha_mix =  0.700 |ddv_scf|^2 =  1.241E-11

      iter #   6 total cpu time :    47.4 secs   av.it.:   8.2
      thresh= 3.523E-07 alpha_mix =  0.700 |ddv_scf|^2 =  9.843E-15

      iter #   7 total cpu time :    48.4 secs   av.it.:   8.8
      thresh= 9.921E-09 alpha_mix =  0.700 |ddv_scf|^2 =  1.644E-15

      iter #   8 total cpu time :    49.7 secs   av.it.:   8.9
      thresh= 4.054E-09 alpha_mix =  0.700 |ddv_scf|^2 =  1.091E-15

      iter #   9 total cpu time :    50.7 secs   av.it.:   8.4
      thresh= 3.303E-09 alpha_mix =  0.700 |ddv_scf|^2 =  4.925E-18

      iter #  10 total cpu time :    51.7 secs   av.it.:   8.9
      thresh= 2.219E-10 alpha_mix =  0.700 |ddv_scf|^2 =  5.004E-19

     End of self-consistent calculation

     Convergence has been achieved 


     Representation #  7 mode #  11

     Self-consistent Calculation

      iter #   1 total cpu time :    52.2 secs   av.it.:   4.9
      thresh= 1.000E-02 alpha_mix =  0.700 |ddv_scf|^2 =  1.657E-06

      iter #   2 total cpu time :    52.7 secs   av.it.:   8.1
      thresh= 1.287E-04 alpha_mix =  0.700 |ddv_scf|^2 =  7.576E-09

      iter #   3 total cpu time :    53.1 secs   av.it.:   7.2
      thresh= 8.704E-06 alpha_mix =  0.700 |ddv_scf|^2 =  6.420E-10

      iter #   4 total cpu time :    53.6 secs   av.it.:   6.4
      thresh= 2.534E-06 alpha_mix =  0.700 |ddv_scf|^2 =  5.673E-13

      iter #   5 total cpu time :    54.2 secs   av.it.:   7.0
      thresh= 7.532E-08 alpha_mix =  0.700 |ddv_scf|^2 =  1.404E-15

      iter #   6 total cpu time :    54.7 secs   av.it.:   7.1
      thresh= 3.747E-09 alpha_mix =  0.700 |ddv_scf|^2 =  6.410E-17

      iter #   7 total cpu time :    55.2 secs   av.it.:   7.4
      thresh= 8.006E-10 alpha_mix =  0.700 |ddv_scf|^2 =  2.100E-19

     End of self-consistent calculation

     Convergence has been achieved 


     Representation #  8 mode #  12

     Self-consistent Calculation

      iter #   1 total cpu time :    55.6 secs   av.it.:   5.0
      thresh= 1.000E-02 alpha_mix =  0.700 |ddv_scf|^2 =  3.478E-05

      iter #   2 total cpu time :    56.1 secs   av.it.:   8.1
      thresh= 5.898E-04 alpha_mix =  0.700 |ddv_scf|^2 =  4.140E-05

      iter #   3 total cpu time :    56.6 secs   av.it.:   7.5
      thresh= 6.434E-04 alpha_mix =  0.700 |ddv_scf|^2 =  4.296E-08

      iter #   4 total cpu time :    57.1 secs   av.it.:   7.5
      thresh= 2.073E-05 alpha_mix =  0.700 |ddv_scf|^2 =  2.956E-10

      iter #   5 total cpu time :    57.5 secs   av.it.:   7.1
      thresh= 1.719E-06 alpha_mix =  0.700 |ddv_scf|^2 =  2.294E-13

      iter #   6 total cpu time :    58.0 secs   av.it.:   8.2
      thresh= 4.789E-08 alpha_mix =  0.700 |ddv_scf|^2 =  4.381E-14

      iter #   7 total cpu time :    58.5 secs   av.it.:   7.8
      thresh= 2.093E-08 alpha_mix =  0.700 |ddv_scf|^2 =  1.855E-14

      iter #   8 total cpu time :    59.2 secs   av.it.:   7.5
      thresh= 1.362E-08 alpha_mix =  0.700 |ddv_scf|^2 =  8.507E-17

      iter #   9 total cpu time :    59.7 secs   av.it.:   7.5
      thresh= 9.223E-10 alpha_mix =  0.700 |ddv_scf|^2 =  1.182E-17

      iter #  10 total cpu time :    60.2 secs   av.it.:   7.7
      thresh= 3.439E-10 alpha_mix =  0.700 |ddv_scf|^2 =  1.322E-19

     End of self-consistent calculation

     Convergence has been achieved 
 
     Number of q in the star =    2
     List of q in the star:
          1   0.333333330   0.577350270   0.000000000
          2  -0.333333330  -0.577350270   0.000000000

     Diagonalizing the dynamical matrix

     q = (    0.333333330   0.577350270   0.000000000 ) 

 **************************************************************************
     freq (    1) =      16.740474 [THz] =     558.402097 [cm-1]
     freq (    2) =      16.740474 [THz] =     558.402097 [cm-1]
     freq (    3) =      16.842912 [THz] =     561.819061 [cm-1]
     freq (    4) =      17.110085 [THz] =     570.730991 [cm-1]
     freq (    5) =      29.900252 [THz] =     997.365045 [cm-1]
     freq (    6) =      29.900252 [THz] =     997.365045 [cm-1]
     freq (    7) =      36.290113 [THz] =    1210.507868 [cm-1]
     freq (    8) =      36.346924 [THz] =    1212.402884 [cm-1]
     freq (    9) =      37.117010 [THz] =    1238.090197 [cm-1]
     freq (   10) =      37.117010 [THz] =    1238.090197 [cm-1]
     freq (   11) =      39.401302 [THz] =    1314.285963 [cm-1]
     freq (   12) =      39.401302 [THz] =    1314.285963 [cm-1]
 **************************************************************************
 
     init_run     :      0.10s CPU      0.11s WALL (       1 calls)
     electrons    :      1.09s CPU      1.09s WALL (       1 calls)

     Called by init_run:
     wfcinit      :      0.00s CPU      0.00s WALL (       1 calls)
     potinit      :      0.02s CPU      0.02s WALL (       1 calls)

     Called by electrons:
     c_bands      :      1.09s CPU      1.09s WALL (       1 calls)
     v_of_rho     :      0.03s CPU      0.03s WALL (       2 calls)
     newd         :      0.01s CPU      0.02s WALL (       2 calls)

     Called by c_bands:
     init_us_2    :      0.15s CPU      0.23s WALL (     860 calls)
     cegterg      :      0.92s CPU      0.92s WALL (      20 calls)

     Called by sum_band:

     Called by *egterg:
     h_psi        :      0.80s CPU      0.77s WALL (     253 calls)
     s_psi        :      3.47s CPU      3.50s WALL (   23117 calls)
     g_psi        :      0.04s CPU      0.04s WALL (     213 calls)
     cdiaghg      :      0.04s CPU      0.07s WALL (     233 calls)

     Called by h_psi:
     add_vuspsi   :      1.64s CPU      1.72s WALL (   11135 calls)

     General routines
     calbec       :      4.09s CPU      4.06s WALL (   24957 calls)
     fft          :      0.60s CPU      0.60s WALL (    1703 calls)
     ffts         :      0.10s CPU      0.11s WALL (     462 calls)
     fftw         :     30.22s CPU     30.32s WALL (  186020 calls)
     interpolate  :      0.14s CPU      0.18s WALL (     234 calls)
     davcio       :      0.31s CPU      2.26s WALL (    5630 calls)
 
 
     PHONON       :  0m56.70s CPU     1m 0.24s WALL

     INITIALIZATION: 
     phq_setup    :      0.06s CPU      0.06s WALL (       1 calls)
     phq_init     :      1.83s CPU      1.97s WALL (       1 calls)
 
     phq_init     :      1.83s CPU      1.97s WALL (       1 calls)
     init_vloc    :      0.00s CPU      0.01s WALL (       2 calls)
     init_us_1    :      0.11s CPU      0.11s WALL (       2 calls)
     newd         :      0.01s CPU      0.02s WALL (       2 calls)
     dvanqq       :      0.28s CPU      0.28s WALL (       1 calls)
     drho         :      0.56s CPU      0.57s WALL (       1 calls)
 
     DYNAMICAL MATRIX:
     dynmat0      :      0.92s CPU      1.05s WALL (       1 calls)
     phqscf       :     53.16s CPU     56.54s WALL (       1 calls)
     dynmatrix    :      0.00s CPU      0.00s WALL (       1 calls)
 
     phqscf       :     53.16s CPU     56.54s WALL (       1 calls)
     solve_linter :     52.96s CPU     56.32s WALL (       8 calls)
     drhodv       :      0.18s CPU      0.19s WALL (       8 calls)
 
     dynmat0      :      0.92s CPU      1.05s WALL (       1 calls)
     dynmat_us    :      0.02s CPU      0.03s WALL (       1 calls)
     d2ionq       :      0.02s CPU      0.01s WALL (       1 calls)
 
     dynmat_us    :      0.02s CPU      0.03s WALL (       1 calls)
     addusdynmat  :      0.00s CPU      0.00s WALL (       1 calls)
 
     phqscf       :     53.16s CPU     56.54s WALL (       1 calls)
     solve_linter :     52.96s CPU     56.32s WALL (       8 calls)
 
     solve_linter :     52.96s CPU     56.32s WALL (       8 calls)
     dvqpsi_us    :      0.49s CPU      0.50s WALL (     120 calls)
     ortho        :      0.51s CPU      0.56s WALL (    1100 calls)
     cgsolve      :     38.70s CPU     39.02s WALL (    1100 calls)
     incdrhoscf   :      3.55s CPU      3.60s WALL (    1100 calls)
     addusddens   :      1.69s CPU      1.69s WALL (      80 calls)
     vpsifft      :      2.92s CPU      3.00s WALL (     980 calls)
     dv_of_drho   :      0.77s CPU      0.78s WALL (     110 calls)
     mix_pot      :      0.28s CPU      0.45s WALL (      72 calls)
     symdvscf     :      1.54s CPU      1.56s WALL (      72 calls)
     newdq        :      1.81s CPU      1.85s WALL (      72 calls)
     adddvscf     :      0.22s CPU      0.23s WALL (     980 calls)
     drhodvus     :      0.01s CPU      0.02s WALL (       8 calls)
 
     dvqpsi_us    :      0.49s CPU      0.50s WALL (     120 calls)
     dvqpsi_us_on :      0.06s CPU      0.10s WALL (     120 calls)
 
     cgsolve      :     38.70s CPU     39.02s WALL (    1100 calls)
     ch_psi       :     38.07s CPU     38.37s WALL (   10882 calls)
 
     ch_psi       :     38.07s CPU     38.37s WALL (   10882 calls)
     h_psiq       :     33.18s CPU     33.37s WALL (   10882 calls)
     last         :      4.73s CPU      4.85s WALL (   10882 calls)
 
     h_psiq       :     33.18s CPU     33.37s WALL (   10882 calls)
     firstfft     :     13.24s CPU     13.21s WALL (   73030 calls)
     secondfft    :     12.78s CPU     12.84s WALL (   73030 calls)
     add_vuspsi   :      1.64s CPU      1.72s WALL (   11135 calls)
 
     incdrhoscf   :      3.55s CPU      3.60s WALL (    1100 calls)
     addusdbec    :      0.21s CPU      0.25s WALL (    1220 calls)
 
     drhodvus     :      0.01s CPU      0.02s WALL (       8 calls)
 
      General routines
     calbec       :      4.09s CPU      4.06s WALL (   24957 calls)
     fft          :      0.60s CPU      0.60s WALL (    1703 calls)
     ffts         :      0.10s CPU      0.11s WALL (     462 calls)
     fftw         :     30.22s CPU     30.32s WALL (  186020 calls)
     davcio       :      0.31s CPU      2.26s WALL (    5630 calls)
     write_rec    :      0.14s CPU      0.83s WALL (      80 calls)
 
 
     PHONON       :  0m56.70s CPU     1m 0.24s WALL

 
   This run was terminated on:  21:58:32   4Apr2016            

=------------------------------------------------------------------------------=
   JOB DONE.
=------------------------------------------------------------------------------=
