
     Program PHONON v.5.3.0 (svn rev. 12298) starts on 12Apr2016 at 18: 3:34 

     This program is part of the open-source Quantum ESPRESSO suite
     for quantum simulation of materials; please cite
         "P. Giannozzi et al., J. Phys.:Condens. Matter 21 395502 (2009);
          URL http://www.quantum-espresso.org", 
     in publications or presentations arising from this work. More details at
     http://www.quantum-espresso.org/quote

     Parallel version (MPI), running on     1 processors

     Reading data from directory:
     /home/degironc/QE/SVN/BB/espresso/tempdir/graphite.save

   Info: using nr1, nr2, nr3 values from input

   Info: using nr1, nr2, nr3 values from input

     IMPORTANT: XC functional enforced from input :
     Exchange-correlation      = RVV10 ( 1  4 13  4 3 0)
     Any further DFT definition will be discarded
     Please, verify this is what you really want

               file C.pbe-rrkjus.UPF: wavefunction(s)  2S 2P renormalized

     G-vector sticks info
     --------------------
     sticks:   dense  smooth     PW     G-vecs:    dense   smooth      PW
     Sum         265     187     61                 9111     4943    1045



---------------------------------------------------------------------------------
Carrying out rVV10 run using the following parameters:
Nqs =      20    Nr_points =    1024   r_max =   100.000
b_value =  6.30000    beta =  0.00901
     q_mesh =  0.00010000  0.00030000  0.00058939  0.00100810
               0.00161396  0.00249058  0.00375900  0.00559430
               0.00824984  0.01209221  0.01765183  0.02569619
               0.03733578  0.05417739  0.07854596  0.11380545
               0.16482331  0.23864234  0.34545298  0.50000000

Gradients computed in Reciprocal space

---------------------------------------------------------------------------------



     Calculation of q =    0.3333333   0.5773503   0.0000000

     G-vector sticks info
     --------------------
     sticks:   dense  smooth     PW     G-vecs:    dense   smooth      PW
     Sum         265     187     85                 9111     4943    1553



     bravais-lattice index     =            4
     lattice parameter (alat)  =       4.6463  a.u.
     unit-cell volume          =     224.3370 (a.u.)^3
     number of atoms/cell      =            4
     number of atomic types    =            1
     number of electrons       =        16.00
     number of Kohn-Sham states=            8
     kinetic-energy cutoff     =      30.0000  Ry
     charge density cutoff     =     180.0000  Ry
     Exchange-correlation      = RVV10 ( 1  4 13  4 3 0)

     celldm(1)=   4.646303  celldm(2)=   0.000000  celldm(3)=   2.582543
     celldm(4)=   0.000000  celldm(5)=   0.000000  celldm(6)=   0.000000

     crystal axes: (cart. coord. in units of alat)
               a(1) = (   1.000000   0.000000   0.000000 )  
               a(2) = (  -0.500000   0.866025   0.000000 )  
               a(3) = (   0.000000   0.000000   2.582543 )  

     reciprocal axes: (cart. coord. in units 2 pi/alat)
               b(1) = (  1.000000  0.577350 -0.000000 )  
               b(2) = (  0.000000  1.154701  0.000000 )  
               b(3) = (  0.000000 -0.000000  0.387215 )  


     PseudoPot. # 1 for C  read from file:
     /home/degironc/QE/SVN/BB/espresso/pseudo/C.pbe-rrkjus.UPF
     MD5 check sum: 00fb224312de0c5b6853bd333518df6f
     Pseudo is Ultrasoft, Zval =  4.0
     Generated by new atomic code, or converted to UPF format
     Using radial grid of  627 points,  4 beta functions with: 
                l(1) =   0
                l(2) =   0
                l(3) =   1
                l(4) =   1
     Q(r) pseudized with 0 coefficients 


     vdW kernel table read from file rVV10_kernel_table
     MD5 check sum: b40d87f4363f44cbecbc2ba61283f335

     atomic species   valence    mass     pseudopotential
        C              4.00    12.01070     C ( 1.00)

     24 Sym. Ops., with inversion, found



   Cartesian axes

     site n.     atom                  positions (alat units)
         1           C   tau(   1) = (   0.0000000   0.0000000   0.0000000  )
         2           C   tau(   2) = (  -0.0000000   0.5773503   0.0000000  )
         3           C   tau(   3) = (   0.0000000   0.0000000   1.2912714  )
         4           C   tau(   4) = (   0.5000000   0.2886751   1.2912714  )

     number of k points=    20
                       cart. coord. in units 2pi/alat
        k(    1) = (   0.1250000   0.2165064   0.0968038), wk =   0.1250000
        k(    2) = (   0.4583333   0.7938566   0.0968038), wk =   0.0000000
        k(    3) = (   0.1250000   0.5051815   0.0968038), wk =   0.2500000
        k(    4) = (   0.4583333   1.0825318   0.0968038), wk =   0.0000000
        k(    5) = (   0.1250000  -0.3608439   0.0968038), wk =   0.2500000
        k(    6) = (   0.4583333   0.2165064   0.0968038), wk =   0.0000000
        k(    7) = (   0.1250000  -0.0721688   0.0968038), wk =   0.2500000
        k(    8) = (   0.4583333   0.5051815   0.0968038), wk =   0.0000000
        k(    9) = (   0.3750000   0.6495191   0.0968038), wk =   0.1250000
        k(   10) = (   0.7083333   1.2268693   0.0968038), wk =   0.0000000
        k(   11) = (   0.3750000  -0.2165064   0.0968038), wk =   0.2500000
        k(   12) = (   0.7083333   0.3608439   0.0968038), wk =   0.0000000
        k(   13) = (  -0.1250000  -0.2165064  -0.0968038), wk =   0.1250000
        k(   14) = (   0.2083333   0.3608439  -0.0968038), wk =   0.0000000
        k(   15) = (  -0.1250000  -0.5051815  -0.0968038), wk =   0.2500000
        k(   16) = (   0.2083333   0.0721688  -0.0968038), wk =   0.0000000
        k(   17) = (  -0.1250000   0.3608439  -0.0968038), wk =   0.2500000
        k(   18) = (   0.2083333   0.9381942  -0.0968038), wk =   0.0000000
        k(   19) = (  -0.3750000  -0.6495191  -0.0968038), wk =   0.1250000
        k(   20) = (  -0.0416667  -0.0721688  -0.0968038), wk =   0.0000000

     Dense  grid:     9111 G-vectors     FFT dimensions: (  20,  20,  54)

     Smooth grid:     4943 G-vectors     FFT dimensions: (  18,  18,  45)

     Largest allocated arrays     est. size (Mb)     dimensions
        Kohn-Sham Wavefunctions         0.08 Mb     (     630,    8)
        NL pseudopotentials             0.31 Mb     (     630,   32)
        Each V/rho on FFT grid          0.33 Mb     (   21600)
        Each G-vector array             0.07 Mb     (    9111)
        G-vector shells                 0.00 Mb     (     525)
     Largest temporary arrays     est. size (Mb)     dimensions
        Auxiliary wavefunctions         0.31 Mb     (     630,   32)
        Each subspace H/S matrix        0.02 Mb     (      32,   32)
        Each <psi_i|beta_j> matrix      0.00 Mb     (      32,    8)

     The potential is recalculated from file :
     /home/degironc/QE/SVN/BB/espresso/tempdir/_ph0/graphite.save/charge-density.dat

     Starting wfc are   16 atomic wfcs

     Band Structure Calculation
     Davidson diagonalization with overlap

     ethr =  6.25E-11,  avg # of iterations = 10.5

     total cpu time spent up to now is        1.5 secs

     End of band structure calculation

          k = 0.1250 0.2165 0.0968 (   619 PWs)   bands (ev):

   -10.8738 -10.5682   0.5104   1.4221   1.4730   2.2699   2.5058   2.5418

          k = 0.4583 0.7939 0.0968 (   625 PWs)   bands (ev):

    -6.5480  -6.4244  -5.4692  -5.3773   0.6875   0.7674   5.0640   5.7350

          k = 0.1250 0.5052 0.0968 (   628 PWs)   bands (ev):

    -7.3284  -7.0965  -4.4033  -4.2265   0.2017   0.2943   4.5259   5.6756

          k = 0.4583 1.0825 0.0968 (   629 PWs)   bands (ev):

    -8.2354  -7.9803  -2.8330  -2.6889  -0.1756  -0.0803   3.6011   5.0485

          k = 0.1250-0.3608 0.0968 (   627 PWs)   bands (ev):

    -9.4169  -9.1387  -1.3886  -1.2645   0.9751   1.0527   2.2401   3.8534

          k = 0.4583 0.2165 0.0968 (   626 PWs)   bands (ev):

    -7.5528  -7.3162  -4.5881  -4.4043   1.1686   1.2373   4.2400   5.3927

          k = 0.1250-0.0722 0.0968 (   606 PWs)   bands (ev):

   -11.6140 -11.2945  -0.3831   1.4333   3.2129   3.2687   3.8907   3.9321

          k = 0.4583 0.5052 0.0968 (   630 PWs)   bands (ev):

    -6.8845  -6.6621  -4.0845  -3.9286  -1.2384  -1.1273   5.0799   6.2210

          k = 0.3750 0.6495 0.0968 (   630 PWs)   bands (ev):

    -5.7021  -5.5877  -4.7720  -4.7236  -2.0978  -1.9840   6.2474   6.8892

          k = 0.7083 1.2269 0.0968 (   630 PWs)   bands (ev):

    -6.2421  -6.0363  -4.0214  -3.9251  -2.3286  -2.2667   5.8289   6.9067

          k = 0.3750-0.2165 0.0968 (   623 PWs)   bands (ev):

    -8.7020  -8.4377  -3.0948  -2.9278   1.5762   1.6396   3.0391   4.5238

          k = 0.7083 0.3608 0.0968 (   623 PWs)   bands (ev):

    -9.6566  -9.3738  -1.4534  -1.3139   1.8791   1.9430   1.9532   3.5881

          k =-0.1250-0.2165-0.0968 (   619 PWs)   bands (ev):

   -10.8738 -10.5682   0.5104   1.4221   1.4730   2.2699   2.5058   2.5418

          k = 0.2083 0.3608-0.0968 (   625 PWs)   bands (ev):

    -8.9405  -8.6714  -1.5766  -1.5021  -0.0608  -0.0052   2.8016   4.3630

          k =-0.1250-0.5052-0.0968 (   628 PWs)   bands (ev):

    -7.3284  -7.0965  -4.4033  -4.2265   0.2017   0.2943   4.5259   5.6756

          k = 0.2083 0.0722-0.0968 (   613 PWs)   bands (ev):

   -11.1197 -10.8095   0.2142   1.7777   1.8581   1.9942   3.1268   3.1771

          k =-0.1250 0.3608-0.0968 (   627 PWs)   bands (ev):

    -9.4169  -9.1387  -1.3886  -1.2645   0.9751   1.0527   2.2401   3.8534

          k = 0.2083 0.9382-0.0968 (   621 PWs)   bands (ev):

   -10.3843 -10.0879   0.1808   0.2829   1.0967   2.1148   2.1766   2.8114

          k =-0.3750-0.6495-0.0968 (   630 PWs)   bands (ev):

    -5.7021  -5.5877  -4.7720  -4.7236  -2.0978  -1.9840   6.2474   6.8892

          k =-0.0417-0.0722-0.0968 (   594 PWs)   bands (ev):

   -11.8622 -11.5380  -0.6844   1.1498   4.1138   4.1409   4.3315   4.3552

     highest occupied level (ev):     6.9067

     Writing output data file graphite.save

                                                                                

     bravais-lattice index     =            4
     lattice parameter (alat)  =       4.6463  a.u.
     unit-cell volume          =     224.3370 (a.u.)^3
     number of atoms/cell      =            4
     number of atomic types    =            1
     kinetic-energy cut-off    =      30.0000  Ry
     charge density cut-off    =     180.0000  Ry
     convergence threshold     =      1.0E-18
     beta                      =       0.7000
     number of iterations used =            4
     Exchange-correlation      = RVV10 ( 1  4 13  4 3 0)


     celldm(1)=    4.64630  celldm(2)=    0.00000  celldm(3)=    2.58254
     celldm(4)=    0.00000  celldm(5)=    0.00000  celldm(6)=    0.00000

     crystal axes: (cart. coord. in units of alat)
               a(1) = (  1.0000  0.0000  0.0000 )  
               a(2) = ( -0.5000  0.8660  0.0000 )  
               a(3) = (  0.0000  0.0000  2.5825 )  

     reciprocal axes: (cart. coord. in units 2 pi/alat)
               b(1) = (  1.0000  0.5774 -0.0000 )  
               b(2) = (  0.0000  1.1547  0.0000 )  
               b(3) = (  0.0000 -0.0000  0.3872 )  


     Atoms inside the unit cell: 

     Cartesian axes

     site n.  atom      mass           positions (alat units)
        1     C   12.0107   tau(    1) = (    0.00000    0.00000    0.00000  )
        2     C   12.0107   tau(    2) = (   -0.00000    0.57735    0.00000  )
        3     C   12.0107   tau(    3) = (    0.00000    0.00000    1.29127  )
        4     C   12.0107   tau(    4) = (    0.50000    0.28868    1.29127  )

     Computing dynamical matrix for 
                    q = (   0.3333333   0.5773503   0.0000000 )

     12 Sym.Ops. (no q -> -q+G )


     G cutoff =   98.4301  (   9111 G-vectors)     FFT grid: ( 20, 20, 54)
     G cutoff =   65.6201  (   4943 G-vectors)  smooth grid: ( 18, 18, 45)
     number of k points=    20
                       cart. coord. in units 2pi/alat
        k(    1) = (   0.1250000   0.2165064   0.0968038), wk =   0.1250000
        k(    2) = (   0.4583333   0.7938566   0.0968038), wk =   0.0000000
        k(    3) = (   0.1250000   0.5051815   0.0968038), wk =   0.2500000
        k(    4) = (   0.4583333   1.0825318   0.0968038), wk =   0.0000000
        k(    5) = (   0.1250000  -0.3608439   0.0968038), wk =   0.2500000
        k(    6) = (   0.4583333   0.2165064   0.0968038), wk =   0.0000000
        k(    7) = (   0.1250000  -0.0721688   0.0968038), wk =   0.2500000
        k(    8) = (   0.4583333   0.5051815   0.0968038), wk =   0.0000000
        k(    9) = (   0.3750000   0.6495191   0.0968038), wk =   0.1250000
        k(   10) = (   0.7083333   1.2268693   0.0968038), wk =   0.0000000
        k(   11) = (   0.3750000  -0.2165064   0.0968038), wk =   0.2500000
        k(   12) = (   0.7083333   0.3608439   0.0968038), wk =   0.0000000
        k(   13) = (  -0.1250000  -0.2165064  -0.0968038), wk =   0.1250000
        k(   14) = (   0.2083333   0.3608439  -0.0968038), wk =   0.0000000
        k(   15) = (  -0.1250000  -0.5051815  -0.0968038), wk =   0.2500000
        k(   16) = (   0.2083333   0.0721688  -0.0968038), wk =   0.0000000
        k(   17) = (  -0.1250000   0.3608439  -0.0968038), wk =   0.2500000
        k(   18) = (   0.2083333   0.9381942  -0.0968038), wk =   0.0000000
        k(   19) = (  -0.3750000  -0.6495191  -0.0968038), wk =   0.1250000
        k(   20) = (  -0.0416667  -0.0721688  -0.0968038), wk =   0.0000000

     PseudoPot. # 1 for C  read from file:
     /home/degironc/QE/SVN/BB/espresso/pseudo/C.pbe-rrkjus.UPF
     MD5 check sum: 00fb224312de0c5b6853bd333518df6f
     Pseudo is Ultrasoft, Zval =  4.0
     Generated by new atomic code, or converted to UPF format
     Using radial grid of  627 points,  4 beta functions with: 
                l(1) =   0
                l(2) =   0
                l(3) =   1
                l(4) =   1
     Q(r) pseudized with 0 coefficients 



     Atomic displacements:
     There are   8 irreducible representations

     Representation     1      2 modes -  To be done

     Representation     2      2 modes -  To be done

     Representation     3      1 modes -  To be done

     Representation     4      1 modes -  To be done

     Representation     5      2 modes -  To be done

     Representation     6      2 modes -  To be done

     Representation     7      1 modes -  To be done

     Representation     8      1 modes -  To be done



     Alpha used in Ewald sum =   1.8000
     PHONON       :     3.28s CPU         3.31s WALL



     Representation #  1 modes #   1  2

     Self-consistent Calculation

      iter #   1 total cpu time :     4.8 secs   av.it.:   5.2
      thresh= 1.000E-02 alpha_mix =  0.700 |ddv_scf|^2 =  5.438E-06

      iter #   2 total cpu time :     6.7 secs   av.it.:   8.8
      thresh= 2.332E-04 alpha_mix =  0.700 |ddv_scf|^2 =  3.675E-06

      iter #   3 total cpu time :     8.5 secs   av.it.:   8.5
      thresh= 1.917E-04 alpha_mix =  0.700 |ddv_scf|^2 =  1.031E-07

      iter #   4 total cpu time :    10.4 secs   av.it.:   8.5
      thresh= 3.211E-05 alpha_mix =  0.700 |ddv_scf|^2 =  3.827E-10

      iter #   5 total cpu time :    12.2 secs   av.it.:   8.5
      thresh= 1.956E-06 alpha_mix =  0.700 |ddv_scf|^2 =  1.020E-11

      iter #   6 total cpu time :    14.1 secs   av.it.:   8.5
      thresh= 3.194E-07 alpha_mix =  0.700 |ddv_scf|^2 =  2.636E-14

      iter #   7 total cpu time :    16.0 secs   av.it.:   8.4
      thresh= 1.624E-08 alpha_mix =  0.700 |ddv_scf|^2 =  2.796E-15

      iter #   8 total cpu time :    17.9 secs   av.it.:   8.9
      thresh= 5.288E-09 alpha_mix =  0.700 |ddv_scf|^2 =  1.815E-15

      iter #   9 total cpu time :    19.7 secs   av.it.:   8.3
      thresh= 4.261E-09 alpha_mix =  0.700 |ddv_scf|^2 =  1.349E-17

      iter #  10 total cpu time :    21.5 secs   av.it.:   8.5
      thresh= 3.673E-10 alpha_mix =  0.700 |ddv_scf|^2 =  9.296E-19

     End of self-consistent calculation

     Convergence has been achieved 


     Representation #  2 modes #   3  4

     Self-consistent Calculation

      iter #   1 total cpu time :    23.0 secs   av.it.:   5.0
      thresh= 1.000E-02 alpha_mix =  0.700 |ddv_scf|^2 =  3.438E-06

      iter #   2 total cpu time :    24.9 secs   av.it.:   8.8
      thresh= 1.854E-04 alpha_mix =  0.700 |ddv_scf|^2 =  5.136E-07

      iter #   3 total cpu time :    26.7 secs   av.it.:   8.4
      thresh= 7.166E-05 alpha_mix =  0.700 |ddv_scf|^2 =  1.458E-08

      iter #   4 total cpu time :    28.5 secs   av.it.:   8.5
      thresh= 1.207E-05 alpha_mix =  0.700 |ddv_scf|^2 =  6.261E-10

      iter #   5 total cpu time :    30.4 secs   av.it.:   8.4
      thresh= 2.502E-06 alpha_mix =  0.700 |ddv_scf|^2 =  2.395E-12

      iter #   6 total cpu time :    32.2 secs   av.it.:   8.3
      thresh= 1.548E-07 alpha_mix =  0.700 |ddv_scf|^2 =  8.182E-15

      iter #   7 total cpu time :    34.1 secs   av.it.:   8.3
      thresh= 9.045E-09 alpha_mix =  0.700 |ddv_scf|^2 =  5.341E-16

      iter #   8 total cpu time :    36.0 secs   av.it.:   8.4
      thresh= 2.311E-09 alpha_mix =  0.700 |ddv_scf|^2 =  4.615E-17

      iter #   9 total cpu time :    37.9 secs   av.it.:   8.8
      thresh= 6.793E-10 alpha_mix =  0.700 |ddv_scf|^2 =  1.149E-17

      iter #  10 total cpu time :    39.7 secs   av.it.:   8.5
      thresh= 3.390E-10 alpha_mix =  0.700 |ddv_scf|^2 =  3.941E-19

     End of self-consistent calculation

     Convergence has been achieved 


     Representation #  3 mode #   5

     Self-consistent Calculation

      iter #   1 total cpu time :    40.5 secs   av.it.:   5.0
      thresh= 1.000E-02 alpha_mix =  0.700 |ddv_scf|^2 =  2.436E-05

      iter #   2 total cpu time :    41.4 secs   av.it.:   8.2
      thresh= 4.936E-04 alpha_mix =  0.700 |ddv_scf|^2 =  2.338E-05

      iter #   3 total cpu time :    42.3 secs   av.it.:   7.5
      thresh= 4.836E-04 alpha_mix =  0.700 |ddv_scf|^2 =  3.614E-08

      iter #   4 total cpu time :    43.1 secs   av.it.:   7.7
      thresh= 1.901E-05 alpha_mix =  0.700 |ddv_scf|^2 =  2.688E-10

      iter #   5 total cpu time :    44.0 secs   av.it.:   7.2
      thresh= 1.640E-06 alpha_mix =  0.700 |ddv_scf|^2 =  4.041E-13

      iter #   6 total cpu time :    44.9 secs   av.it.:   7.6
      thresh= 6.357E-08 alpha_mix =  0.700 |ddv_scf|^2 =  2.623E-14

      iter #   7 total cpu time :    45.8 secs   av.it.:   8.2
      thresh= 1.620E-08 alpha_mix =  0.700 |ddv_scf|^2 =  1.788E-14

      iter #   8 total cpu time :    46.7 secs   av.it.:   7.4
      thresh= 1.337E-08 alpha_mix =  0.700 |ddv_scf|^2 =  5.156E-17

      iter #   9 total cpu time :    47.6 secs   av.it.:   7.3
      thresh= 7.181E-10 alpha_mix =  0.700 |ddv_scf|^2 =  4.561E-18

      iter #  10 total cpu time :    48.5 secs   av.it.:   7.9
      thresh= 2.136E-10 alpha_mix =  0.700 |ddv_scf|^2 =  9.555E-20

     End of self-consistent calculation

     Convergence has been achieved 


     Representation #  4 mode #   6

     Self-consistent Calculation

      iter #   1 total cpu time :    49.2 secs   av.it.:   5.0
      thresh= 1.000E-02 alpha_mix =  0.700 |ddv_scf|^2 =  3.894E-06

      iter #   2 total cpu time :    50.1 secs   av.it.:   7.8
      thresh= 1.973E-04 alpha_mix =  0.700 |ddv_scf|^2 =  4.565E-08

      iter #   3 total cpu time :    51.0 secs   av.it.:   7.8
      thresh= 2.136E-05 alpha_mix =  0.700 |ddv_scf|^2 =  1.568E-09

      iter #   4 total cpu time :    51.8 secs   av.it.:   6.4
      thresh= 3.959E-06 alpha_mix =  0.700 |ddv_scf|^2 =  1.058E-12

      iter #   5 total cpu time :    52.6 secs   av.it.:   6.6
      thresh= 1.029E-07 alpha_mix =  0.700 |ddv_scf|^2 =  9.293E-15

      iter #   6 total cpu time :    53.4 secs   av.it.:   6.1
      thresh= 9.640E-09 alpha_mix =  0.700 |ddv_scf|^2 =  7.127E-17

      iter #   7 total cpu time :    54.3 secs   av.it.:   6.9
      thresh= 8.442E-10 alpha_mix =  0.700 |ddv_scf|^2 =  1.119E-19

     End of self-consistent calculation

     Convergence has been achieved 


     Representation #  5 modes #   7  8

     Self-consistent Calculation

      iter #   1 total cpu time :    55.9 secs   av.it.:   5.0
      thresh= 1.000E-02 alpha_mix =  0.700 |ddv_scf|^2 =  7.144E-07

      iter #   2 total cpu time :    57.7 secs   av.it.:   8.7
      thresh= 8.452E-05 alpha_mix =  0.700 |ddv_scf|^2 =  5.617E-09

      iter #   3 total cpu time :    59.5 secs   av.it.:   8.6
      thresh= 7.495E-06 alpha_mix =  0.700 |ddv_scf|^2 =  3.206E-10

      iter #   4 total cpu time :    61.2 secs   av.it.:   7.2
      thresh= 1.791E-06 alpha_mix =  0.700 |ddv_scf|^2 =  2.835E-13

      iter #   5 total cpu time :    63.0 secs   av.it.:   8.3
      thresh= 5.324E-08 alpha_mix =  0.700 |ddv_scf|^2 =  5.818E-15

      iter #   6 total cpu time :    64.8 secs   av.it.:   7.8
      thresh= 7.628E-09 alpha_mix =  0.700 |ddv_scf|^2 =  2.380E-17

      iter #   7 total cpu time :    66.6 secs   av.it.:   8.1
      thresh= 4.879E-10 alpha_mix =  0.700 |ddv_scf|^2 =  7.178E-19

     End of self-consistent calculation

     Convergence has been achieved 


     Representation #  6 modes #   9 10

     Self-consistent Calculation

      iter #   1 total cpu time :    68.1 secs   av.it.:   5.2
      thresh= 1.000E-02 alpha_mix =  0.700 |ddv_scf|^2 =  5.368E-06

      iter #   2 total cpu time :    70.0 secs   av.it.:   9.0
      thresh= 2.317E-04 alpha_mix =  0.700 |ddv_scf|^2 =  5.019E-06

      iter #   3 total cpu time :    71.8 secs   av.it.:   8.4
      thresh= 2.240E-04 alpha_mix =  0.700 |ddv_scf|^2 =  5.078E-08

      iter #   4 total cpu time :    73.6 secs   av.it.:   8.4
      thresh= 2.254E-05 alpha_mix =  0.700 |ddv_scf|^2 =  7.473E-10

      iter #   5 total cpu time :    75.5 secs   av.it.:   8.6
      thresh= 2.734E-06 alpha_mix =  0.700 |ddv_scf|^2 =  1.831E-11

      iter #   6 total cpu time :    77.3 secs   av.it.:   8.4
      thresh= 4.279E-07 alpha_mix =  0.700 |ddv_scf|^2 =  1.796E-14

      iter #   7 total cpu time :    79.2 secs   av.it.:   8.5
      thresh= 1.340E-08 alpha_mix =  0.700 |ddv_scf|^2 =  2.949E-15

      iter #   8 total cpu time :    81.0 secs   av.it.:   8.9
      thresh= 5.431E-09 alpha_mix =  0.700 |ddv_scf|^2 =  1.910E-15

      iter #   9 total cpu time :    82.9 secs   av.it.:   8.4
      thresh= 4.371E-09 alpha_mix =  0.700 |ddv_scf|^2 =  6.992E-18

      iter #  10 total cpu time :    84.7 secs   av.it.:   8.8
      thresh= 2.644E-10 alpha_mix =  0.700 |ddv_scf|^2 =  4.891E-19

     End of self-consistent calculation

     Convergence has been achieved 


     Representation #  7 mode #  11

     Self-consistent Calculation

      iter #   1 total cpu time :    85.5 secs   av.it.:   4.9
      thresh= 1.000E-02 alpha_mix =  0.700 |ddv_scf|^2 =  1.928E-06

      iter #   2 total cpu time :    86.4 secs   av.it.:   8.1
      thresh= 1.389E-04 alpha_mix =  0.700 |ddv_scf|^2 =  1.594E-08

      iter #   3 total cpu time :    87.2 secs   av.it.:   7.0
      thresh= 1.263E-05 alpha_mix =  0.700 |ddv_scf|^2 =  1.669E-09

      iter #   4 total cpu time :    88.0 secs   av.it.:   6.2
      thresh= 4.086E-06 alpha_mix =  0.700 |ddv_scf|^2 =  3.436E-12

      iter #   5 total cpu time :    88.8 secs   av.it.:   6.1
      thresh= 1.854E-07 alpha_mix =  0.700 |ddv_scf|^2 =  3.402E-15

      iter #   6 total cpu time :    89.6 secs   av.it.:   6.7
      thresh= 5.833E-09 alpha_mix =  0.700 |ddv_scf|^2 =  2.324E-16

      iter #   7 total cpu time :    90.5 secs   av.it.:   6.9
      thresh= 1.525E-09 alpha_mix =  0.700 |ddv_scf|^2 =  2.762E-19

     End of self-consistent calculation

     Convergence has been achieved 


     Representation #  8 mode #  12

     Self-consistent Calculation

      iter #   1 total cpu time :    91.2 secs   av.it.:   5.0
      thresh= 1.000E-02 alpha_mix =  0.700 |ddv_scf|^2 =  3.470E-05

      iter #   2 total cpu time :    92.1 secs   av.it.:   8.1
      thresh= 5.890E-04 alpha_mix =  0.700 |ddv_scf|^2 =  4.128E-05

      iter #   3 total cpu time :    93.0 secs   av.it.:   7.5
      thresh= 6.425E-04 alpha_mix =  0.700 |ddv_scf|^2 =  4.044E-08

      iter #   4 total cpu time :    93.8 secs   av.it.:   7.5
      thresh= 2.011E-05 alpha_mix =  0.700 |ddv_scf|^2 =  3.052E-10

      iter #   5 total cpu time :    94.7 secs   av.it.:   7.1
      thresh= 1.747E-06 alpha_mix =  0.700 |ddv_scf|^2 =  3.773E-13

      iter #   6 total cpu time :    95.6 secs   av.it.:   8.2
      thresh= 6.142E-08 alpha_mix =  0.700 |ddv_scf|^2 =  5.787E-14

      iter #   7 total cpu time :    96.5 secs   av.it.:   7.8
      thresh= 2.406E-08 alpha_mix =  0.700 |ddv_scf|^2 =  3.100E-14

      iter #   8 total cpu time :    97.3 secs   av.it.:   7.5
      thresh= 1.761E-08 alpha_mix =  0.700 |ddv_scf|^2 =  1.626E-16

      iter #   9 total cpu time :    98.2 secs   av.it.:   7.7
      thresh= 1.275E-09 alpha_mix =  0.700 |ddv_scf|^2 =  3.137E-17

      iter #  10 total cpu time :    99.1 secs   av.it.:   7.5
      thresh= 5.601E-10 alpha_mix =  0.700 |ddv_scf|^2 =  3.331E-19

     End of self-consistent calculation

     Convergence has been achieved 

     Number of q in the star =    2
     List of q in the star:
          1   0.333333330   0.577350270   0.000000000
          2  -0.333333330  -0.577350270   0.000000000

     Diagonalizing the dynamical matrix

     q = (    0.333333330   0.577350270   0.000000000 ) 

 **************************************************************************
     freq (    1) =      14.906635 [THz] =     497.231837 [cm-1]
     freq (    2) =      15.257198 [THz] =     508.925343 [cm-1]
     freq (    3) =      15.279053 [THz] =     509.654335 [cm-1]
     freq (    4) =      15.279053 [THz] =     509.654335 [cm-1]
     freq (    5) =      30.274800 [THz] =    1009.858611 [cm-1]
     freq (    6) =      30.274800 [THz] =    1009.858611 [cm-1]
     freq (    7) =      36.689619 [THz] =    1223.833951 [cm-1]
     freq (    8) =      36.740072 [THz] =    1225.516875 [cm-1]
     freq (    9) =      36.850786 [THz] =    1229.209900 [cm-1]
     freq (   10) =      36.850786 [THz] =    1229.209900 [cm-1]
     freq (   11) =      39.415860 [THz] =    1314.771573 [cm-1]
     freq (   12) =      39.415860 [THz] =    1314.771573 [cm-1]
 **************************************************************************

     init_run     :      0.23s CPU      0.23s WALL (       1 calls)
     electrons    :      1.31s CPU      1.31s WALL (       1 calls)

     Called by init_run:
     wfcinit      :      0.00s CPU      0.00s WALL (       1 calls)
     potinit      :      0.12s CPU      0.12s WALL (       1 calls)

     Called by electrons:
     c_bands      :      1.31s CPU      1.31s WALL (       1 calls)
     v_of_rho     :      0.23s CPU      0.23s WALL (       2 calls)
     newd         :      0.01s CPU      0.01s WALL (       2 calls)
     vdW_ffts     :      1.64s CPU      1.65s WALL (     216 calls)

     Called by c_bands:
     init_us_2    :      0.15s CPU      0.15s WALL (     850 calls)
     cegterg      :      1.09s CPU      1.09s WALL (      20 calls)

     Called by sum_band:

     Called by *egterg:
     h_psi        :      1.01s CPU      1.01s WALL (     250 calls)
     s_psi        :      4.96s CPU      4.88s WALL (   22652 calls)
     g_psi        :      0.00s CPU      0.01s WALL (     210 calls)
     cdiaghg      :      0.04s CPU      0.04s WALL (     230 calls)

     Called by h_psi:
     add_vuspsi   :      2.47s CPU      2.34s WALL (   10911 calls)

     General routines
     calbec       :      5.95s CPU      5.87s WALL (   24472 calls)
     fft          :      2.19s CPU      2.25s WALL (   11925 calls)
     ffts         :      0.10s CPU      0.11s WALL (     458 calls)
     fftw         :     39.57s CPU     39.05s WALL (  181842 calls)
     interpolate  :      0.09s CPU      0.12s WALL (     230 calls)
     davcio       :      0.13s CPU      0.21s WALL (    5536 calls)

     Parallel routines
     fft_scatter  :      1.55s CPU      2.53s WALL (  194225 calls)

     PHONON       :  1m37.81s CPU     1m39.08s WALL

     INITIALIZATION: 
     phq_setup    :      0.06s CPU      0.06s WALL (       1 calls)
     phq_init     :      1.07s CPU      1.08s WALL (       1 calls)

     phq_init     :      1.07s CPU      1.08s WALL (       1 calls)
     init_vloc    :      0.01s CPU      0.01s WALL (       2 calls)
     init_us_1    :      0.14s CPU      0.14s WALL (       2 calls)
     newd         :      0.01s CPU      0.01s WALL (       2 calls)
     dvanqq       :      0.29s CPU      0.29s WALL (       1 calls)
     drho         :      0.57s CPU      0.57s WALL (       1 calls)

     DYNAMICAL MATRIX:
     dynmat0      :      0.10s CPU      0.10s WALL (       1 calls)
     phqscf       :     94.53s CPU     95.77s WALL (       1 calls)
     dynmatrix    :      0.00s CPU      0.00s WALL (       1 calls)

     phqscf       :     94.53s CPU     95.77s WALL (       1 calls)
     solve_linter :     94.32s CPU     95.54s WALL (       8 calls)
     drhodv       :      0.20s CPU      0.21s WALL (       8 calls)

     dynmat0      :      0.10s CPU      0.10s WALL (       1 calls)
     dynmat_us    :      0.07s CPU      0.07s WALL (       1 calls)
     d2ionq       :      0.02s CPU      0.02s WALL (       1 calls)

     dynmat_us    :      0.07s CPU      0.07s WALL (       1 calls)
     addusdynmat  :      0.00s CPU      0.00s WALL (       1 calls)

     phqscf       :     94.53s CPU     95.77s WALL (       1 calls)
     solve_linter :     94.32s CPU     95.54s WALL (       8 calls)

     solve_linter :     94.32s CPU     95.54s WALL (       8 calls)
     dvqpsi_us    :      0.58s CPU      0.58s WALL (     120 calls)
     ortho        :      0.74s CPU      0.74s WALL (    1080 calls)
     cgsolve      :     47.87s CPU     48.17s WALL (    1080 calls)
     incdrhoscf   :      4.47s CPU      4.52s WALL (    1080 calls)
     addusddens   :      1.32s CPU      1.32s WALL (      79 calls)
     vpsifft      :      3.52s CPU      3.60s WALL (     960 calls)
     dv_of_drho   :     32.89s CPU     33.49s WALL (     108 calls)
     mix_pot      :      0.11s CPU      0.19s WALL (      71 calls)
     psymdvscf    :      0.88s CPU      0.88s WALL (      71 calls)
     newdq        :      1.45s CPU      1.50s WALL (      71 calls)
     adddvscf     :      0.27s CPU      0.26s WALL (     960 calls)
     drhodvus     :      0.01s CPU      0.01s WALL (       8 calls)

     dvqpsi_us    :      0.58s CPU      0.58s WALL (     120 calls)
     dvqpsi_us_on :      0.10s CPU      0.09s WALL (     120 calls)

     cgsolve      :     47.87s CPU     48.17s WALL (    1080 calls)
     ch_psi       :     47.16s CPU     47.51s WALL (   10661 calls)

     ch_psi       :     47.16s CPU     47.51s WALL (   10661 calls)
     h_psiq       :     40.91s CPU     41.10s WALL (   10661 calls)
     last         :      6.23s CPU      6.30s WALL (   10661 calls)

     h_psiq       :     40.91s CPU     41.10s WALL (   10661 calls)
     firstfft     :     17.18s CPU     16.45s WALL (   71267 calls)
     secondfft    :     15.60s CPU     15.75s WALL (   71267 calls)
     add_vuspsi   :      2.47s CPU      2.34s WALL (   10911 calls)

     incdrhoscf   :      4.47s CPU      4.52s WALL (    1080 calls)
     addusdbec    :      0.35s CPU      0.35s WALL (    1200 calls)

     drhodvus     :      0.01s CPU      0.01s WALL (       8 calls)

      General routines
     calbec       :      5.95s CPU      5.87s WALL (   24472 calls)
     fft          :      2.19s CPU      2.25s WALL (   11925 calls)
     ffts         :      0.10s CPU      0.11s WALL (     458 calls)
     fftw         :     39.57s CPU     39.05s WALL (  181842 calls)
     davcio       :      0.13s CPU      0.21s WALL (    5536 calls)
     write_rec    :      0.08s CPU      0.10s WALL (      79 calls)


     PHONON       :  1m37.81s CPU     1m39.08s WALL


   This run was terminated on:  18: 5:13  12Apr2016            

=------------------------------------------------------------------------------=
   JOB DONE.
=------------------------------------------------------------------------------=
