
     Program PHONON v.6.beta (svn rev. 13009) starts on 23Sep2016 at 17: 4:28 

     This program is part of the open-source Quantum ESPRESSO suite
     for quantum simulation of materials; please cite
         "P. Giannozzi et al., J. Phys.:Condens. Matter 21 395502 (2009);
          URL http://www.quantum-espresso.org", 
     in publications or presentations arising from this work. More details at
     http://www.quantum-espresso.org/quote

           HOST :    @host@
           ARCH :    x86_64
             CC :    cc
            CPP :    cpp
            F90 :    mpif90
            F77 :    gfortran
         DFLAGS :    -D__GFORTRAN -D__STD_F95 -D__FFTW -D__MPI
      BLAS LIBS :    
    LAPACK LIBS :    $(TOPDIR)/LAPACK/liblapack.a $(TOPDIR)/LAPACK/libblas.a
       FFT LIBS :    
      MASS LIBS :    

     Parallel version (MPI), running on     2 processors
     R & G space division:  proc/nbgrp/npool/nimage =       2

     Reading data from directory:
     /home/pietro/trunk/espresso/tempdir/graphite.save

   Info: using nr1, nr2, nr3 values from input

   Info: using nr1, nr2, nr3 values from input

     IMPORTANT: XC functional enforced from input :
     Exchange-correlation      =  SLA  PW   PBE  PBE ( 1  4  3  4 0 0)
     Any further DFT definition will be discarded
     Please, verify this is what you really want

               file C.pbe-rrkjus.UPF: wavefunction(s)  2S 2P renormalized

     Parallelization info
     --------------------
     sticks:   dense  smooth     PW     G-vecs:    dense   smooth      PW
     Min         132      93     30                 4553     2471     520
     Max         133      94     31                 4558     2472     525
     Sum         265     187     61                 9111     4943    1045


     Calculation of q =    0.0000000   0.0000000   0.0000000

                                                                                

     bravais-lattice index     =            4
     lattice parameter (alat)  =       4.6463  a.u.
     unit-cell volume          =     224.3370 (a.u.)^3
     number of atoms/cell      =            4
     number of atomic types    =            1
     kinetic-energy cut-off    =      30.0000  Ry
     charge density cut-off    =     180.0000  Ry
     convergence threshold     =      1.0E-18
     beta                      =       0.7000
     number of iterations used =            4
     Exchange-correlation      =  SLA  PW   PBE  PBE ( 1  4  3  4 0 0)


     celldm(1)=    4.64630  celldm(2)=    0.00000  celldm(3)=    2.58254
     celldm(4)=    0.00000  celldm(5)=    0.00000  celldm(6)=    0.00000

     crystal axes: (cart. coord. in units of alat)
               a(1) = (  1.0000  0.0000  0.0000 )  
               a(2) = ( -0.5000  0.8660  0.0000 )  
               a(3) = (  0.0000  0.0000  2.5825 )  

     reciprocal axes: (cart. coord. in units 2 pi/alat)
               b(1) = (  1.0000  0.5774 -0.0000 )  
               b(2) = (  0.0000  1.1547  0.0000 )  
               b(3) = (  0.0000 -0.0000  0.3872 )  


     Atoms inside the unit cell: 

     Cartesian axes

     site n.  atom      mass           positions (alat units)
        1     C   12.0107   tau(    1) = (    0.00000    0.00000    0.00000  )
        2     C   12.0107   tau(    2) = (   -0.00000    0.57735    0.00000  )
        3     C   12.0107   tau(    3) = (    0.00000    0.00000    1.29127  )
        4     C   12.0107   tau(    4) = (    0.50000    0.28868    1.29127  )

     Computing dynamical matrix for 
                    q = (   0.0000000   0.0000000   0.0000000 )

     25 Sym.Ops. (with q -> -q+G )


     G cutoff =   98.4301  (   4558 G-vectors)     FFT grid: ( 20, 20, 54)
     G cutoff =   65.6201  (   2471 G-vectors)  smooth grid: ( 18, 18, 45)
     number of k points=     6
                       cart. coord. in units 2pi/alat
        k(    1) = (   0.1250000   0.2165064   0.0968038), wk =   0.2500000
        k(    2) = (   0.1250000   0.5051815   0.0968038), wk =   0.5000000
        k(    3) = (   0.1250000  -0.3608439   0.0968038), wk =   0.5000000
        k(    4) = (   0.1250000  -0.0721688   0.0968038), wk =   0.2500000
        k(    5) = (   0.3750000   0.6495191   0.0968038), wk =   0.2500000
        k(    6) = (   0.3750000  -0.2165064   0.0968038), wk =   0.2500000

     PseudoPot. # 1 for C  read from file:
     /home/pietro/trunk/espresso/pseudo/C.pbe-rrkjus.UPF
     MD5 check sum: 00fb224312de0c5b6853bd333518df6f
     Pseudo is Ultrasoft, Zval =  4.0
     Generated by new atomic code, or converted to UPF format
     Using radial grid of  627 points,  4 beta functions with: 
                l(1) =   0
                l(2) =   0
                l(3) =   1
                l(4) =   1
     Q(r) pseudized with 0 coefficients 


     Mode symmetry, D_6h(6/mmm) point group:


     Atomic displacements:
     There are   8 irreducible representations

     Representation     1      1 modes -B_1g  To be done

     Representation     2      1 modes -B_1g  To be done

     Representation     3      2 modes -E_2g  To be done

     Representation     4      2 modes -E_2g  To be done

     Representation     5      1 modes -A_2u  To be done

     Representation     6      1 modes -A_2u  To be done

     Representation     7      2 modes -E_1u  To be done

     Representation     8      2 modes -E_1u  To be done



     Alpha used in Ewald sum =   1.8000

     -------------------------------------
     Parameters for Dispersion Correction:
     -------------------------------------
       atom      VdW radius       C_6     

        C          2.744         60.710
     PHONON       :     1.17s CPU         1.18s WALL



     Representation #  1 mode #   1

     Self-consistent Calculation

      iter #   1 total cpu time :     1.4 secs   av.it.:   5.3
      thresh= 1.000E-02 alpha_mix =  0.700 |ddv_scf|^2 =  2.147E-04

      iter #   2 total cpu time :     1.6 secs   av.it.:   7.0
      thresh= 1.465E-03 alpha_mix =  0.700 |ddv_scf|^2 =  2.807E-04

      iter #   3 total cpu time :     1.7 secs   av.it.:   6.3
      thresh= 1.675E-03 alpha_mix =  0.700 |ddv_scf|^2 =  3.767E-09

      iter #   4 total cpu time :     1.9 secs   av.it.:   7.3
      thresh= 6.138E-06 alpha_mix =  0.700 |ddv_scf|^2 =  1.769E-10

      iter #   5 total cpu time :     2.1 secs   av.it.:   6.5
      thresh= 1.330E-06 alpha_mix =  0.700 |ddv_scf|^2 =  5.388E-12

      iter #   6 total cpu time :     2.3 secs   av.it.:   6.5
      thresh= 2.321E-07 alpha_mix =  0.700 |ddv_scf|^2 =  1.415E-13

      iter #   7 total cpu time :     2.5 secs   av.it.:   6.5
      thresh= 3.762E-08 alpha_mix =  0.700 |ddv_scf|^2 =  2.898E-15

      iter #   8 total cpu time :     2.7 secs   av.it.:   6.7
      thresh= 5.383E-09 alpha_mix =  0.700 |ddv_scf|^2 =  1.853E-17

      iter #   9 total cpu time :     2.9 secs   av.it.:   6.3
      thresh= 4.304E-10 alpha_mix =  0.700 |ddv_scf|^2 =  3.836E-19

     End of self-consistent calculation

     Convergence has been achieved 


     Representation #  2 mode #   2

     Self-consistent Calculation

      iter #   1 total cpu time :     3.1 secs   av.it.:   5.3
      thresh= 1.000E-02 alpha_mix =  0.700 |ddv_scf|^2 =  2.141E-04

      iter #   2 total cpu time :     3.3 secs   av.it.:   7.2
      thresh= 1.463E-03 alpha_mix =  0.700 |ddv_scf|^2 =  2.801E-04

      iter #   3 total cpu time :     3.5 secs   av.it.:   6.3
      thresh= 1.674E-03 alpha_mix =  0.700 |ddv_scf|^2 =  4.155E-09

      iter #   4 total cpu time :     3.7 secs   av.it.:   7.3
      thresh= 6.446E-06 alpha_mix =  0.700 |ddv_scf|^2 =  1.866E-10

      iter #   5 total cpu time :     3.9 secs   av.it.:   6.5
      thresh= 1.366E-06 alpha_mix =  0.700 |ddv_scf|^2 =  6.078E-12

      iter #   6 total cpu time :     4.1 secs   av.it.:   6.7
      thresh= 2.465E-07 alpha_mix =  0.700 |ddv_scf|^2 =  1.411E-13

      iter #   7 total cpu time :     4.3 secs   av.it.:   6.7
      thresh= 3.757E-08 alpha_mix =  0.700 |ddv_scf|^2 =  3.161E-15

      iter #   8 total cpu time :     4.5 secs   av.it.:   6.7
      thresh= 5.623E-09 alpha_mix =  0.700 |ddv_scf|^2 =  1.088E-17

      iter #   9 total cpu time :     4.7 secs   av.it.:   6.5
      thresh= 3.298E-10 alpha_mix =  0.700 |ddv_scf|^2 =  3.427E-19

     End of self-consistent calculation

     Convergence has been achieved 


     Representation #  3 modes #   3  4

     Self-consistent Calculation

      iter #   1 total cpu time :     5.0 secs   av.it.:   5.0
      thresh= 1.000E-02 alpha_mix =  0.700 |ddv_scf|^2 =  2.684E-07

      iter #   2 total cpu time :     5.4 secs   av.it.:   9.0
      thresh= 5.181E-05 alpha_mix =  0.700 |ddv_scf|^2 =  1.982E-09

      iter #   3 total cpu time :     5.9 secs   av.it.:   8.3
      thresh= 4.452E-06 alpha_mix =  0.700 |ddv_scf|^2 =  1.184E-10

      iter #   4 total cpu time :     6.2 secs   av.it.:   7.2
      thresh= 1.088E-06 alpha_mix =  0.700 |ddv_scf|^2 =  6.349E-14

      iter #   5 total cpu time :     6.7 secs   av.it.:   8.2
      thresh= 2.520E-08 alpha_mix =  0.700 |ddv_scf|^2 =  3.429E-15

      iter #   6 total cpu time :     7.1 secs   av.it.:   8.0
      thresh= 5.856E-09 alpha_mix =  0.700 |ddv_scf|^2 =  6.713E-18

      iter #   7 total cpu time :     7.5 secs   av.it.:   7.8
      thresh= 2.591E-10 alpha_mix =  0.700 |ddv_scf|^2 =  5.751E-19

     End of self-consistent calculation

     Convergence has been achieved 


     Representation #  4 modes #   5  6

     Self-consistent Calculation

      iter #   1 total cpu time :     7.8 secs   av.it.:   5.0
      thresh= 1.000E-02 alpha_mix =  0.700 |ddv_scf|^2 =  2.823E-07

      iter #   2 total cpu time :     8.3 secs   av.it.:   9.0
      thresh= 5.313E-05 alpha_mix =  0.700 |ddv_scf|^2 =  2.511E-09

      iter #   3 total cpu time :     8.7 secs   av.it.:   8.2
      thresh= 5.011E-06 alpha_mix =  0.700 |ddv_scf|^2 =  1.587E-10

      iter #   4 total cpu time :     9.1 secs   av.it.:   7.2
      thresh= 1.260E-06 alpha_mix =  0.700 |ddv_scf|^2 =  4.701E-14

      iter #   5 total cpu time :     9.5 secs   av.it.:   8.3
      thresh= 2.168E-08 alpha_mix =  0.700 |ddv_scf|^2 =  2.633E-15

      iter #   6 total cpu time :     9.9 secs   av.it.:   8.1
      thresh= 5.131E-09 alpha_mix =  0.700 |ddv_scf|^2 =  5.374E-18

      iter #   7 total cpu time :    10.3 secs   av.it.:   7.6
      thresh= 2.318E-10 alpha_mix =  0.700 |ddv_scf|^2 =  4.545E-19

     End of self-consistent calculation

     Convergence has been achieved 


     Representation #  5 mode #   7

     Self-consistent Calculation

      iter #   1 total cpu time :    10.5 secs   av.it.:   4.5
      thresh= 1.000E-02 alpha_mix =  0.700 |ddv_scf|^2 =  6.666E-06

      iter #   2 total cpu time :    10.7 secs   av.it.:   7.3
      thresh= 2.582E-04 alpha_mix =  0.700 |ddv_scf|^2 =  4.058E-07

      iter #   3 total cpu time :    10.9 secs   av.it.:   7.3
      thresh= 6.371E-05 alpha_mix =  0.700 |ddv_scf|^2 =  1.112E-09

      iter #   4 total cpu time :    11.1 secs   av.it.:   6.8
      thresh= 3.335E-06 alpha_mix =  0.700 |ddv_scf|^2 =  1.664E-11

      iter #   5 total cpu time :    11.3 secs   av.it.:   6.8
      thresh= 4.080E-07 alpha_mix =  0.700 |ddv_scf|^2 =  4.955E-14

      iter #   6 total cpu time :    11.5 secs   av.it.:   6.3
      thresh= 2.226E-08 alpha_mix =  0.700 |ddv_scf|^2 =  1.389E-15

      iter #   7 total cpu time :    11.7 secs   av.it.:   6.3
      thresh= 3.727E-09 alpha_mix =  0.700 |ddv_scf|^2 =  7.315E-18

      iter #   8 total cpu time :    11.9 secs   av.it.:   6.3
      thresh= 2.705E-10 alpha_mix =  0.700 |ddv_scf|^2 =  1.161E-19

     End of self-consistent calculation

     Convergence has been achieved 


     Representation #  6 mode #   8

     Self-consistent Calculation

      iter #   1 total cpu time :    12.0 secs   av.it.:   4.8
      thresh= 1.000E-02 alpha_mix =  0.700 |ddv_scf|^2 =  6.785E-06

      iter #   2 total cpu time :    12.2 secs   av.it.:   7.3
      thresh= 2.605E-04 alpha_mix =  0.700 |ddv_scf|^2 =  4.136E-07

      iter #   3 total cpu time :    12.4 secs   av.it.:   7.3
      thresh= 6.431E-05 alpha_mix =  0.700 |ddv_scf|^2 =  1.053E-09

      iter #   4 total cpu time :    12.6 secs   av.it.:   7.0
      thresh= 3.246E-06 alpha_mix =  0.700 |ddv_scf|^2 =  1.689E-11

      iter #   5 total cpu time :    12.8 secs   av.it.:   6.7
      thresh= 4.110E-07 alpha_mix =  0.700 |ddv_scf|^2 =  5.828E-14

      iter #   6 total cpu time :    13.0 secs   av.it.:   6.3
      thresh= 2.414E-08 alpha_mix =  0.700 |ddv_scf|^2 =  1.467E-15

      iter #   7 total cpu time :    13.2 secs   av.it.:   6.5
      thresh= 3.830E-09 alpha_mix =  0.700 |ddv_scf|^2 =  1.033E-17

      iter #   8 total cpu time :    13.4 secs   av.it.:   6.5
      thresh= 3.214E-10 alpha_mix =  0.700 |ddv_scf|^2 =  2.180E-19

     End of self-consistent calculation

     Convergence has been achieved 


     Representation #  7 modes #   9 10

     Self-consistent Calculation

      iter #   1 total cpu time :    13.8 secs   av.it.:   5.0
      thresh= 1.000E-02 alpha_mix =  0.700 |ddv_scf|^2 =  2.773E-07

      iter #   2 total cpu time :    14.2 secs   av.it.:   9.0
      thresh= 5.266E-05 alpha_mix =  0.700 |ddv_scf|^2 =  2.557E-09

      iter #   3 total cpu time :    14.6 secs   av.it.:   8.2
      thresh= 5.057E-06 alpha_mix =  0.700 |ddv_scf|^2 =  1.587E-10

      iter #   4 total cpu time :    15.0 secs   av.it.:   7.0
      thresh= 1.260E-06 alpha_mix =  0.700 |ddv_scf|^2 =  6.316E-14

      iter #   5 total cpu time :    15.4 secs   av.it.:   8.1
      thresh= 2.513E-08 alpha_mix =  0.700 |ddv_scf|^2 =  3.653E-15

      iter #   6 total cpu time :    15.8 secs   av.it.:   8.1
      thresh= 6.044E-09 alpha_mix =  0.700 |ddv_scf|^2 =  7.603E-18

      iter #   7 total cpu time :    16.2 secs   av.it.:   7.6
      thresh= 2.757E-10 alpha_mix =  0.700 |ddv_scf|^2 =  6.540E-19

     End of self-consistent calculation

     Convergence has been achieved 


     Representation #  8 modes #  11 12

     Self-consistent Calculation

      iter #   1 total cpu time :    16.6 secs   av.it.:   5.0
      thresh= 1.000E-02 alpha_mix =  0.700 |ddv_scf|^2 =  2.743E-07

      iter #   2 total cpu time :    17.0 secs   av.it.:   9.0
      thresh= 5.237E-05 alpha_mix =  0.700 |ddv_scf|^2 =  1.960E-09

      iter #   3 total cpu time :    17.4 secs   av.it.:   8.3
      thresh= 4.427E-06 alpha_mix =  0.700 |ddv_scf|^2 =  1.173E-10

      iter #   4 total cpu time :    17.8 secs   av.it.:   7.0
      thresh= 1.083E-06 alpha_mix =  0.700 |ddv_scf|^2 =  4.770E-14

      iter #   5 total cpu time :    18.2 secs   av.it.:   8.2
      thresh= 2.184E-08 alpha_mix =  0.700 |ddv_scf|^2 =  2.438E-15

      iter #   6 total cpu time :    18.6 secs   av.it.:   7.9
      thresh= 4.937E-09 alpha_mix =  0.700 |ddv_scf|^2 =  4.723E-18

      iter #   7 total cpu time :    19.0 secs   av.it.:   7.6
      thresh= 2.173E-10 alpha_mix =  0.700 |ddv_scf|^2 =  4.026E-19

     End of self-consistent calculation

     Convergence has been achieved 

     Number of q in the star =    1
     List of q in the star:
          1   0.000000000   0.000000000   0.000000000

     Diagonalizing the dynamical matrix

     q = (    0.000000000   0.000000000   0.000000000 ) 

 **************************************************************************
     freq (    1) =       3.734960 [THz] =     124.584865 [cm-1]
     freq (    2) =       3.734960 [THz] =     124.584865 [cm-1]
     freq (    3) =       4.116982 [THz] =     137.327742 [cm-1]
     freq (    4) =       4.116982 [THz] =     137.327742 [cm-1]
     freq (    5) =       4.800759 [THz] =     160.136070 [cm-1]
     freq (    6) =       6.644804 [THz] =     221.646813 [cm-1]
     freq (    7) =      26.378590 [THz] =     879.895065 [cm-1]
     freq (    8) =      26.569075 [THz] =     886.248944 [cm-1]
     freq (    9) =      47.238539 [THz] =    1575.708052 [cm-1]
     freq (   10) =      47.238539 [THz] =    1575.708052 [cm-1]
     freq (   11) =      47.690250 [THz] =    1590.775516 [cm-1]
     freq (   12) =      47.690250 [THz] =    1590.775516 [cm-1]
 **************************************************************************

     Mode symmetry, D_6h(6/mmm) point group:

     freq (  1 -  2) =        124.6  [cm-1]   --> E_1u            I  
     freq (  3 -  4) =        137.3  [cm-1]   --> E_2g            R  
     freq (  5 -  5) =        160.1  [cm-1]   --> A_2u            I  
     freq (  6 -  6) =        221.6  [cm-1]   --> B_1g               
     freq (  7 -  7) =        879.9  [cm-1]   --> B_1g               
     freq (  8 -  8) =        886.2  [cm-1]   --> A_2u            I  
     freq (  9 - 10) =       1575.7  [cm-1]   --> E_2g            R  
     freq ( 11 - 12) =       1590.8  [cm-1]   --> E_1u            I  

     PHONON       :    18.72s CPU        19.02s WALL

     INITIALIZATION: 
     phq_setup    :      0.02s CPU      0.03s WALL (       1 calls)
     phq_init     :      0.94s CPU      0.95s WALL (       1 calls)

     phq_init     :      0.94s CPU      0.95s WALL (       1 calls)
     init_vloc    :      0.01s CPU      0.01s WALL (       1 calls)
     init_us_1    :      0.07s CPU      0.07s WALL (       1 calls)
     newd         :      0.01s CPU      0.01s WALL (       1 calls)
     dvanqq       :      0.12s CPU      0.13s WALL (       1 calls)
     drho         :      0.21s CPU      0.21s WALL (       1 calls)

     DYNAMICAL MATRIX:
     dynmat0      :      0.55s CPU      0.56s WALL (       1 calls)
     phqscf       :     17.56s CPU     17.84s WALL (       1 calls)
     dynmatrix    :      0.00s CPU      0.00s WALL (       1 calls)

     phqscf       :     17.56s CPU     17.84s WALL (       1 calls)
     solve_linter :     17.47s CPU     17.74s WALL (       8 calls)
     drhodv       :      0.07s CPU      0.08s WALL (       8 calls)

     dynmat0      :      0.55s CPU      0.56s WALL (       1 calls)
     dynmat_us    :      0.03s CPU      0.03s WALL (       1 calls)
     d2ionq       :      0.01s CPU      0.01s WALL (       1 calls)

     dynmat_us    :      0.03s CPU      0.03s WALL (       1 calls)
     addusdynmat  :      0.00s CPU      0.00s WALL (       1 calls)

     phqscf       :     17.56s CPU     17.84s WALL (       1 calls)
     solve_linter :     17.47s CPU     17.74s WALL (       8 calls)

     solve_linter :     17.47s CPU     17.74s WALL (       8 calls)
     dvqpsi_us    :      0.17s CPU      0.20s WALL (      72 calls)
     ortho        :      0.25s CPU      0.20s WALL (     540 calls)
     cgsolve      :     11.42s CPU     11.60s WALL (     540 calls)
     incdrhoscf   :      1.18s CPU      1.16s WALL (     540 calls)
     addusddens   :      0.61s CPU      0.62s WALL (      70 calls)
     vpsifft      :      0.86s CPU      0.93s WALL (     468 calls)
     dv_of_drho   :      0.36s CPU      0.38s WALL (      90 calls)
     mix_pot      :      0.07s CPU      0.08s WALL (      62 calls)
     psymdvscf    :      1.65s CPU      1.65s WALL (      62 calls)
     newdq        :      0.68s CPU      0.69s WALL (      62 calls)
     adddvscf     :      0.06s CPU      0.07s WALL (     468 calls)
     drhodvus     :      0.01s CPU      0.01s WALL (       8 calls)

     dvqpsi_us    :      0.17s CPU      0.20s WALL (      72 calls)
     dvqpsi_us_on :      0.03s CPU      0.04s WALL (      72 calls)

     cgsolve      :     11.42s CPU     11.60s WALL (     540 calls)
     ch_psi       :     11.24s CPU     11.38s WALL (    5010 calls)

     ch_psi       :     11.24s CPU     11.38s WALL (    5010 calls)
     last         :      1.73s CPU      1.62s WALL (    5010 calls)

     add_vuspsi   :      0.52s CPU      0.50s WALL (    5010 calls)

     incdrhoscf   :      1.18s CPU      1.16s WALL (     540 calls)
     addusdbec    :      0.09s CPU      0.11s WALL (     612 calls)

     drhodvus     :      0.01s CPU      0.01s WALL (       8 calls)

      General routines
     calbec       :      1.66s CPU      1.60s WALL (   11520 calls)
     fft          :      0.47s CPU      0.48s WALL (    1391 calls)
     ffts         :      0.05s CPU      0.07s WALL (     373 calls)
     fftw         :      9.26s CPU      9.51s WALL (   83934 calls)
     davcio       :      0.07s CPU      0.09s WALL (    2680 calls)
     write_rec    :      0.08s CPU      0.08s WALL (      70 calls)


     PHONON       :    18.72s CPU        19.02s WALL


   This run was terminated on:  17: 4:47  23Sep2016            

=------------------------------------------------------------------------------=
   JOB DONE.
=------------------------------------------------------------------------------=
