
     Program PWSCF v.5.3.0 (svn rev. 12298) starts on 12Apr2016 at 18: 2:31 

     This program is part of the open-source Quantum ESPRESSO suite
     for quantum simulation of materials; please cite
         "P. Giannozzi et al., J. Phys.:Condens. Matter 21 395502 (2009);
          URL http://www.quantum-espresso.org", 
     in publications or presentations arising from this work. More details at
     http://www.quantum-espresso.org/quote

     Parallel version (MPI), running on     1 processors
     Waiting for input...
     Reading input from standard input

     Current dimensions of program PWSCF are:
     Max number of different atomic species (ntypx) = 10
     Max number of k-points (npk) =  40000
     Max angular momentum in pseudopotentials (lmaxx) =  3

     IMPORTANT: XC functional enforced from input :
     Exchange-correlation      = RVV10 ( 1  4 13  4 3 0)
     Any further DFT definition will be discarded
     Please, verify this is what you really want

               file C.pbe-rrkjus.UPF: wavefunction(s)  2S 2P renormalized

     Subspace diagonalization in iterative solution of the eigenvalue problem:
     a serial algorithm will be used


     G-vector sticks info
     --------------------
     sticks:   dense  smooth     PW     G-vecs:    dense   smooth      PW
     Sum         265     187     61                 9111     4943    1045



     bravais-lattice index     =            4
     lattice parameter (alat)  =       4.6463  a.u.
     unit-cell volume          =     224.3370 (a.u.)^3
     number of atoms/cell      =            4
     number of atomic types    =            1
     number of electrons       =        16.00
     number of Kohn-Sham states=            8
     kinetic-energy cutoff     =      30.0000  Ry
     charge density cutoff     =     180.0000  Ry
     convergence threshold     =      1.0E-12
     mixing beta               =       0.7000
     number of iterations used =            8  plain     mixing
     Exchange-correlation      = RVV10 ( 1  4 13  4 3 0)

     celldm(1)=   4.646303  celldm(2)=   0.000000  celldm(3)=   2.582543
     celldm(4)=   0.000000  celldm(5)=   0.000000  celldm(6)=   0.000000

     crystal axes: (cart. coord. in units of alat)
               a(1) = (   1.000000   0.000000   0.000000 )  
               a(2) = (  -0.500000   0.866025   0.000000 )  
               a(3) = (   0.000000   0.000000   2.582543 )  

     reciprocal axes: (cart. coord. in units 2 pi/alat)
               b(1) = (  1.000000  0.577350 -0.000000 )  
               b(2) = (  0.000000  1.154701  0.000000 )  
               b(3) = (  0.000000 -0.000000  0.387215 )  


     PseudoPot. # 1 for C  read from file:
     /home/degironc/QE/SVN/BB/espresso/pseudo/C.pbe-rrkjus.UPF
     MD5 check sum: 00fb224312de0c5b6853bd333518df6f
     Pseudo is Ultrasoft, Zval =  4.0
     Generated by new atomic code, or converted to UPF format
     Using radial grid of  627 points,  4 beta functions with: 
                l(1) =   0
                l(2) =   0
                l(3) =   1
                l(4) =   1
     Q(r) pseudized with 0 coefficients 


     vdW kernel table read from file rVV10_kernel_table
     MD5 check sum: b40d87f4363f44cbecbc2ba61283f335

     atomic species   valence    mass     pseudopotential
        C              4.00    12.00000     C ( 1.00)

     24 Sym. Ops., with inversion, found (12 have fractional translation)



   Cartesian axes

     site n.     atom                  positions (alat units)
         1           C   tau(   1) = (   0.0000000   0.0000000   0.0000000  )
         2           C   tau(   2) = (  -0.0000000   0.5773503   0.0000000  )
         3           C   tau(   3) = (   0.0000000   0.0000000   1.2912714  )
         4           C   tau(   4) = (   0.5000000   0.2886751   1.2912714  )

     number of k points=     6
                       cart. coord. in units 2pi/alat
        k(    1) = (   0.1250000   0.2165064   0.0968038), wk =   0.2500000
        k(    2) = (   0.1250000   0.5051815   0.0968038), wk =   0.5000000
        k(    3) = (   0.1250000  -0.3608439   0.0968038), wk =   0.5000000
        k(    4) = (   0.1250000  -0.0721688   0.0968038), wk =   0.2500000
        k(    5) = (   0.3750000   0.6495191   0.0968038), wk =   0.2500000
        k(    6) = (   0.3750000  -0.2165064   0.0968038), wk =   0.2500000

     Dense  grid:     9111 G-vectors     FFT dimensions: (  20,  20,  54)

     Smooth grid:     4943 G-vectors     FFT dimensions: (  18,  18,  45)

     Largest allocated arrays     est. size (Mb)     dimensions
        Kohn-Sham Wavefunctions         0.08 Mb     (     630,    8)
        NL pseudopotentials             0.31 Mb     (     630,   32)
        Each V/rho on FFT grid          0.33 Mb     (   21600)
        Each G-vector array             0.07 Mb     (    9111)
        G-vector shells                 0.00 Mb     (     525)
     Largest temporary arrays     est. size (Mb)     dimensions
        Auxiliary wavefunctions         0.31 Mb     (     630,   32)
        Each subspace H/S matrix        0.02 Mb     (      32,   32)
        Each <psi_i|beta_j> matrix      0.00 Mb     (      32,    8)
        Arrays for rho mixing           2.64 Mb     (   21600,    8)

     Initial potential from superposition of free atoms

     starting charge   15.99979, renormalised to   16.00000


---------------------------------------------------------------------------------
Carrying out rVV10 run using the following parameters:
Nqs =      20    Nr_points =    1024   r_max =   100.000
b_value =  6.30000    beta =  0.00901
     q_mesh =  0.00010000  0.00030000  0.00058939  0.00100810
               0.00161396  0.00249058  0.00375900  0.00559430
               0.00824984  0.01209221  0.01765183  0.02569619
               0.03733578  0.05417739  0.07854596  0.11380545
               0.16482331  0.23864234  0.34545298  0.50000000

Gradients computed in Reciprocal space

---------------------------------------------------------------------------------


     Starting wfc are   16 randomized atomic wfcs

     total cpu time spent up to now is        0.5 secs

     per-process dynamical memory:    30.2 Mb

     Self-consistent Calculation

     iteration #  1     ecut=    30.00 Ry     beta=0.70
     Davidson diagonalization with overlap
     ethr =  1.00E-02,  avg # of iterations =  2.0

     total cpu time spent up to now is        0.7 secs

     total energy              =     -45.58235872 Ry
     Harris-Foulkes estimate   =     -45.82077992 Ry
     estimated scf accuracy    <       0.40808696 Ry

     iteration #  2     ecut=    30.00 Ry     beta=0.70
     Davidson diagonalization with overlap
     ethr =  2.55E-03,  avg # of iterations =  2.0

     total cpu time spent up to now is        1.0 secs

     total energy              =     -45.64380539 Ry
     Harris-Foulkes estimate   =     -45.64407261 Ry
     estimated scf accuracy    <       0.00530853 Ry

     iteration #  3     ecut=    30.00 Ry     beta=0.70
     Davidson diagonalization with overlap
     ethr =  3.32E-05,  avg # of iterations =  2.5

     total cpu time spent up to now is        1.2 secs

     total energy              =     -45.64449461 Ry
     Harris-Foulkes estimate   =     -45.64446145 Ry
     estimated scf accuracy    <       0.00034187 Ry

     iteration #  4     ecut=    30.00 Ry     beta=0.70
     Davidson diagonalization with overlap
     ethr =  2.14E-06,  avg # of iterations =  2.0

     total cpu time spent up to now is        1.4 secs

     total energy              =     -45.64452489 Ry
     Harris-Foulkes estimate   =     -45.64452558 Ry
     estimated scf accuracy    <       0.00000384 Ry

     iteration #  5     ecut=    30.00 Ry     beta=0.70
     Davidson diagonalization with overlap
     ethr =  2.40E-08,  avg # of iterations =  3.7

     total cpu time spent up to now is        1.7 secs

     total energy              =     -45.64452807 Ry
     Harris-Foulkes estimate   =     -45.64452808 Ry
     estimated scf accuracy    <       0.00000022 Ry

     iteration #  6     ecut=    30.00 Ry     beta=0.70
     Davidson diagonalization with overlap
     ethr =  1.39E-09,  avg # of iterations =  3.3

     total cpu time spent up to now is        1.9 secs

     total energy              =     -45.64452812 Ry
     Harris-Foulkes estimate   =     -45.64452820 Ry
     estimated scf accuracy    <       0.00000023 Ry

     iteration #  7     ecut=    30.00 Ry     beta=0.70
     Davidson diagonalization with overlap
     ethr =  1.39E-09,  avg # of iterations =  2.0

     total cpu time spent up to now is        2.1 secs

     total energy              =     -45.64452813 Ry
     Harris-Foulkes estimate   =     -45.64452814 Ry
     estimated scf accuracy    <       0.00000002 Ry

     iteration #  8     ecut=    30.00 Ry     beta=0.70
     Davidson diagonalization with overlap
     ethr =  1.26E-10,  avg # of iterations =  3.0

     total cpu time spent up to now is        2.4 secs

     total energy              =     -45.64452814 Ry
     Harris-Foulkes estimate   =     -45.64452814 Ry
     estimated scf accuracy    <          6.4E-10 Ry

     iteration #  9     ecut=    30.00 Ry     beta=0.70
     Davidson diagonalization with overlap
     ethr =  3.98E-12,  avg # of iterations =  1.8

     total cpu time spent up to now is        2.6 secs

     total energy              =     -45.64452814 Ry
     Harris-Foulkes estimate   =     -45.64452814 Ry
     estimated scf accuracy    <          2.3E-10 Ry

     iteration # 10     ecut=    30.00 Ry     beta=0.70
     Davidson diagonalization with overlap
     ethr =  1.46E-12,  avg # of iterations =  2.7

     total cpu time spent up to now is        2.8 secs

     total energy              =     -45.64452814 Ry
     Harris-Foulkes estimate   =     -45.64452814 Ry
     estimated scf accuracy    <          6.3E-11 Ry

     iteration # 11     ecut=    30.00 Ry     beta=0.70
     Davidson diagonalization with overlap
     ethr =  3.92E-13,  avg # of iterations =  2.3

     total cpu time spent up to now is        3.1 secs

     total energy              =     -45.64452814 Ry
     Harris-Foulkes estimate   =     -45.64452814 Ry
     estimated scf accuracy    <          3.8E-12 Ry

     iteration # 12     ecut=    30.00 Ry     beta=0.70
     Davidson diagonalization with overlap
     ethr =  1.00E-13,  avg # of iterations =  2.7

     total cpu time spent up to now is        3.3 secs

     total energy              =     -45.64452814 Ry
     Harris-Foulkes estimate   =     -45.64452814 Ry
     estimated scf accuracy    <          6.2E-12 Ry

     iteration # 13     ecut=    30.00 Ry     beta=0.70
     Davidson diagonalization with overlap
     ethr =  1.00E-13,  avg # of iterations =  1.0

     total cpu time spent up to now is        3.5 secs

     total energy              =     -45.64452814 Ry
     Harris-Foulkes estimate   =     -45.64452814 Ry
     estimated scf accuracy    <          1.4E-12 Ry

     iteration # 14     ecut=    30.00 Ry     beta=0.70
     Davidson diagonalization with overlap
     ethr =  1.00E-13,  avg # of iterations =  1.0

     total cpu time spent up to now is        3.7 secs

     End of self-consistent calculation

          k = 0.1250 0.2165 0.0968 (   619 PWs)   bands (ev):

   -10.8738 -10.5682   0.5104   1.4221   1.4730   2.2699   2.5058   2.5418

          k = 0.1250 0.5052 0.0968 (   628 PWs)   bands (ev):

    -7.3284  -7.0965  -4.4034  -4.2265   0.2017   0.2943   4.5259   5.6756

          k = 0.1250-0.3608 0.0968 (   627 PWs)   bands (ev):

    -9.4169  -9.1387  -1.3886  -1.2645   0.9751   1.0527   2.2401   3.8534

          k = 0.1250-0.0722 0.0968 (   606 PWs)   bands (ev):

   -11.6140 -11.2945  -0.3831   1.4333   3.2129   3.2687   3.8907   3.9321

          k = 0.3750 0.6495 0.0968 (   630 PWs)   bands (ev):

    -5.7021  -5.5877  -4.7720  -4.7236  -2.0978  -1.9840   6.2474   6.8892

          k = 0.3750-0.2165 0.0968 (   623 PWs)   bands (ev):

    -8.7020  -8.4377  -3.0948  -2.9278   1.5762   1.6396   3.0391   4.5238

     highest occupied level (ev):     6.8892

!    total energy              =     -45.64452814 Ry
     Harris-Foulkes estimate   =     -45.64452814 Ry
     estimated scf accuracy    <          8.3E-14 Ry

     The total energy is the sum of the following terms:

     one-electron contribution =      -7.07894264 Ry
     hartree contribution      =      11.86628821 Ry
     xc contribution           =     -14.16269631 Ry
     ewald contribution        =     -36.26917740 Ry

     convergence has been achieved in  14 iterations

     Writing output data file graphite.save

     init_run     :      0.28s CPU      0.29s WALL (       1 calls)
     electrons    :      3.19s CPU      3.21s WALL (       1 calls)

     Called by init_run:
     wfcinit      :      0.06s CPU      0.06s WALL (       1 calls)
     potinit      :      0.11s CPU      0.12s WALL (       1 calls)

     Called by electrons:
     c_bands      :      1.16s CPU      1.18s WALL (      14 calls)
     sum_band     :      0.38s CPU      0.38s WALL (      14 calls)
     v_of_rho     :      1.63s CPU      1.64s WALL (      15 calls)
     newd         :      0.10s CPU      0.10s WALL (      15 calls)
     mix_rho      :      0.01s CPU      0.01s WALL (      14 calls)

     Called by c_bands:
     init_us_2    :      0.03s CPU      0.03s WALL (     174 calls)
     cegterg      :      1.11s CPU      1.13s WALL (      84 calls)

     Called by sum_band:
     sum_band:bec :      0.00s CPU      0.00s WALL (      84 calls)
     addusdens    :      0.10s CPU      0.10s WALL (      14 calls)

     Called by *egterg:
     h_psi        :      0.97s CPU      0.98s WALL (     282 calls)
     s_psi        :      0.06s CPU      0.06s WALL (     282 calls)
     g_psi        :      0.00s CPU      0.00s WALL (     192 calls)
     cdiaghg      :      0.03s CPU      0.03s WALL (     276 calls)

     Called by h_psi:
     add_vuspsi   :      0.06s CPU      0.06s WALL (     282 calls)

     General routines
     calbec       :      0.09s CPU      0.09s WALL (     366 calls)
     fft          :      0.18s CPU      0.18s WALL (     985 calls)
     ffts         :      0.01s CPU      0.01s WALL (      29 calls)
     fftw         :      0.95s CPU      0.91s WALL (    4444 calls)
     interpolate  :      0.02s CPU      0.02s WALL (      29 calls)
     davcio       :      0.00s CPU      0.00s WALL (       6 calls)

     Parallel routines
     fft_scatter  :      0.06s CPU      0.08s WALL (    5458 calls)

     PWSCF        :     3.79s CPU         3.83s WALL


   This run was terminated on:  18: 2:35  12Apr2016            

=------------------------------------------------------------------------------=
   JOB DONE.
=------------------------------------------------------------------------------=
