
     Program PHONON v.6.beta (svn rev. 13009) starts on 23Sep2016 at 17: 8:44 

     This program is part of the open-source Quantum ESPRESSO suite
     for quantum simulation of materials; please cite
         "P. Giannozzi et al., J. Phys.:Condens. Matter 21 395502 (2009);
          URL http://www.quantum-espresso.org", 
     in publications or presentations arising from this work. More details at
     http://www.quantum-espresso.org/quote

           HOST :    @host@
           ARCH :    x86_64
             CC :    cc
            CPP :    cpp
            F90 :    mpif90
            F77 :    gfortran
         DFLAGS :    -D__GFORTRAN -D__STD_F95 -D__FFTW -D__MPI
      BLAS LIBS :    
    LAPACK LIBS :    $(TOPDIR)/LAPACK/liblapack.a $(TOPDIR)/LAPACK/libblas.a
       FFT LIBS :    
      MASS LIBS :    

     Parallel version (MPI), running on     2 processors
     R & G space division:  proc/nbgrp/npool/nimage =       2

     Reading data from directory:
     /home/pietro/trunk/espresso/tempdir/graphite.save

   Info: using nr1, nr2, nr3 values from input

   Info: using nr1, nr2, nr3 values from input

     IMPORTANT: XC functional enforced from input :
     Exchange-correlation      = RVV10 ( 1  4 13  4 3 0)
     Any further DFT definition will be discarded
     Please, verify this is what you really want

               file C.pbe-rrkjus.UPF: wavefunction(s)  2S 2P renormalized

     Parallelization info
     --------------------
     sticks:   dense  smooth     PW     G-vecs:    dense   smooth      PW
     Min         132      93     30                 4553     2471     520
     Max         133      94     31                 4558     2472     525
     Sum         265     187     61                 9111     4943    1045



---------------------------------------------------------------------------------
Carrying out rVV10 run using the following parameters:
Nqs =      20    Nr_points =    1024   r_max =   100.000
b_value =  6.30000    beta =  0.00901
     q_mesh =  0.00010000  0.00030000  0.00058939  0.00100810
               0.00161396  0.00249058  0.00375900  0.00559430
               0.00824984  0.01209221  0.01765183  0.02569619
               0.03733578  0.05417739  0.07854596  0.11380545
               0.16482331  0.23864234  0.34545298  0.50000000

Gradients computed in Reciprocal space

---------------------------------------------------------------------------------



     Calculation of q =    0.0000000   0.0000000   0.0000000

                                                                                

     bravais-lattice index     =            4
     lattice parameter (alat)  =       4.6463  a.u.
     unit-cell volume          =     224.3370 (a.u.)^3
     number of atoms/cell      =            4
     number of atomic types    =            1
     kinetic-energy cut-off    =      30.0000  Ry
     charge density cut-off    =     180.0000  Ry
     convergence threshold     =      1.0E-18
     beta                      =       0.7000
     number of iterations used =            4
     Exchange-correlation      = RVV10 ( 1  4 13  4 3 0)


     celldm(1)=    4.64630  celldm(2)=    0.00000  celldm(3)=    2.58254
     celldm(4)=    0.00000  celldm(5)=    0.00000  celldm(6)=    0.00000

     crystal axes: (cart. coord. in units of alat)
               a(1) = (  1.0000  0.0000  0.0000 )  
               a(2) = ( -0.5000  0.8660  0.0000 )  
               a(3) = (  0.0000  0.0000  2.5825 )  

     reciprocal axes: (cart. coord. in units 2 pi/alat)
               b(1) = (  1.0000  0.5774 -0.0000 )  
               b(2) = (  0.0000  1.1547  0.0000 )  
               b(3) = (  0.0000 -0.0000  0.3872 )  


     Atoms inside the unit cell: 

     Cartesian axes

     site n.  atom      mass           positions (alat units)
        1     C   12.0107   tau(    1) = (    0.00000    0.00000    0.00000  )
        2     C   12.0107   tau(    2) = (   -0.00000    0.57735    0.00000  )
        3     C   12.0107   tau(    3) = (    0.00000    0.00000    1.29127  )
        4     C   12.0107   tau(    4) = (    0.50000    0.28868    1.29127  )

     Computing dynamical matrix for 
                    q = (   0.0000000   0.0000000   0.0000000 )

     25 Sym.Ops. (with q -> -q+G )


     G cutoff =   98.4301  (   4558 G-vectors)     FFT grid: ( 20, 20, 54)
     G cutoff =   65.6201  (   2471 G-vectors)  smooth grid: ( 18, 18, 45)
     number of k points=     6
                       cart. coord. in units 2pi/alat
        k(    1) = (   0.1250000   0.2165064   0.0968038), wk =   0.2500000
        k(    2) = (   0.1250000   0.5051815   0.0968038), wk =   0.5000000
        k(    3) = (   0.1250000  -0.3608439   0.0968038), wk =   0.5000000
        k(    4) = (   0.1250000  -0.0721688   0.0968038), wk =   0.2500000
        k(    5) = (   0.3750000   0.6495191   0.0968038), wk =   0.2500000
        k(    6) = (   0.3750000  -0.2165064   0.0968038), wk =   0.2500000

     PseudoPot. # 1 for C  read from file:
     /home/pietro/trunk/espresso/pseudo/C.pbe-rrkjus.UPF
     MD5 check sum: 00fb224312de0c5b6853bd333518df6f
     Pseudo is Ultrasoft, Zval =  4.0
     Generated by new atomic code, or converted to UPF format
     Using radial grid of  627 points,  4 beta functions with: 
                l(1) =   0
                l(2) =   0
                l(3) =   1
                l(4) =   1
     Q(r) pseudized with 0 coefficients 


     Mode symmetry, D_6h(6/mmm) point group:


     Atomic displacements:
     There are   8 irreducible representations

     Representation     1      1 modes -B_1g  To be done

     Representation     2      1 modes -B_1g  To be done

     Representation     3      2 modes -E_2g  To be done

     Representation     4      2 modes -E_2g  To be done

     Representation     5      1 modes -A_2u  To be done

     Representation     6      1 modes -A_2u  To be done

     Representation     7      2 modes -E_1u  To be done

     Representation     8      2 modes -E_1u  To be done



     Alpha used in Ewald sum =   1.8000
     PHONON       :     1.17s CPU         1.19s WALL



     Representation #  1 mode #   1

     Self-consistent Calculation

      iter #   1 total cpu time :     1.6 secs   av.it.:   5.3
      thresh= 1.000E-02 alpha_mix =  0.700 |ddv_scf|^2 =  2.300E-04

      iter #   2 total cpu time :     2.2 secs   av.it.:   7.0
      thresh= 1.517E-03 alpha_mix =  0.700 |ddv_scf|^2 =  3.229E-04

      iter #   3 total cpu time :     2.9 secs   av.it.:   6.3
      thresh= 1.797E-03 alpha_mix =  0.700 |ddv_scf|^2 =  2.205E-08

      iter #   4 total cpu time :     3.5 secs   av.it.:   7.0
      thresh= 1.485E-05 alpha_mix =  0.700 |ddv_scf|^2 =  2.373E-10

      iter #   5 total cpu time :     3.9 secs   av.it.:   6.2
      thresh= 1.540E-06 alpha_mix =  0.700 |ddv_scf|^2 =  1.194E-11

      iter #   6 total cpu time :     4.2 secs   av.it.:   6.7
      thresh= 3.455E-07 alpha_mix =  0.700 |ddv_scf|^2 =  2.625E-14

      iter #   7 total cpu time :     4.6 secs   av.it.:   7.3
      thresh= 1.620E-08 alpha_mix =  0.700 |ddv_scf|^2 =  4.469E-16

      iter #   8 total cpu time :     5.0 secs   av.it.:   6.7
      thresh= 2.114E-09 alpha_mix =  0.700 |ddv_scf|^2 =  1.376E-18

      iter #   9 total cpu time :     5.4 secs   av.it.:   6.3
      thresh= 1.173E-10 alpha_mix =  0.700 |ddv_scf|^2 =  8.425E-20

     End of self-consistent calculation

     Convergence has been achieved 


     Representation #  2 mode #   2

     Self-consistent Calculation

      iter #   1 total cpu time :     5.8 secs   av.it.:   5.3
      thresh= 1.000E-02 alpha_mix =  0.700 |ddv_scf|^2 =  2.291E-04

      iter #   2 total cpu time :     6.2 secs   av.it.:   7.2
      thresh= 1.514E-03 alpha_mix =  0.700 |ddv_scf|^2 =  3.222E-04

      iter #   3 total cpu time :     6.6 secs   av.it.:   6.3
      thresh= 1.795E-03 alpha_mix =  0.700 |ddv_scf|^2 =  2.614E-08

      iter #   4 total cpu time :     6.9 secs   av.it.:   6.8
      thresh= 1.617E-05 alpha_mix =  0.700 |ddv_scf|^2 =  2.476E-10

      iter #   5 total cpu time :     7.3 secs   av.it.:   6.3
      thresh= 1.574E-06 alpha_mix =  0.700 |ddv_scf|^2 =  1.230E-11

      iter #   6 total cpu time :     7.7 secs   av.it.:   6.7
      thresh= 3.507E-07 alpha_mix =  0.700 |ddv_scf|^2 =  3.507E-14

      iter #   7 total cpu time :     8.1 secs   av.it.:   7.2
      thresh= 1.873E-08 alpha_mix =  0.700 |ddv_scf|^2 =  4.592E-16

      iter #   8 total cpu time :     8.5 secs   av.it.:   7.0
      thresh= 2.143E-09 alpha_mix =  0.700 |ddv_scf|^2 =  6.615E-19

     End of self-consistent calculation

     Convergence has been achieved 


     Representation #  3 modes #   3  4

     Self-consistent Calculation

      iter #   1 total cpu time :     9.2 secs   av.it.:   5.0
      thresh= 1.000E-02 alpha_mix =  0.700 |ddv_scf|^2 =  2.753E-07

      iter #   2 total cpu time :    10.2 secs   av.it.:   9.0
      thresh= 5.247E-05 alpha_mix =  0.700 |ddv_scf|^2 =  3.031E-09

      iter #   3 total cpu time :    11.0 secs   av.it.:   8.2
      thresh= 5.506E-06 alpha_mix =  0.700 |ddv_scf|^2 =  1.830E-10

      iter #   4 total cpu time :    11.8 secs   av.it.:   7.2
      thresh= 1.353E-06 alpha_mix =  0.700 |ddv_scf|^2 =  1.302E-13

      iter #   5 total cpu time :    12.6 secs   av.it.:   8.1
      thresh= 3.609E-08 alpha_mix =  0.700 |ddv_scf|^2 =  7.165E-15

      iter #   6 total cpu time :    13.4 secs   av.it.:   7.9
      thresh= 8.465E-09 alpha_mix =  0.700 |ddv_scf|^2 =  7.975E-18

      iter #   7 total cpu time :    14.2 secs   av.it.:   7.4
      thresh= 2.824E-10 alpha_mix =  0.700 |ddv_scf|^2 =  7.621E-19

     End of self-consistent calculation

     Convergence has been achieved 


     Representation #  4 modes #   5  6

     Self-consistent Calculation

      iter #   1 total cpu time :    15.0 secs   av.it.:   5.0
      thresh= 1.000E-02 alpha_mix =  0.700 |ddv_scf|^2 =  2.797E-07

      iter #   2 total cpu time :    15.8 secs   av.it.:   9.0
      thresh= 5.288E-05 alpha_mix =  0.700 |ddv_scf|^2 =  2.636E-09

      iter #   3 total cpu time :    16.7 secs   av.it.:   8.2
      thresh= 5.135E-06 alpha_mix =  0.700 |ddv_scf|^2 =  1.598E-10

      iter #   4 total cpu time :    17.4 secs   av.it.:   7.1
      thresh= 1.264E-06 alpha_mix =  0.700 |ddv_scf|^2 =  1.055E-13

      iter #   5 total cpu time :    18.2 secs   av.it.:   8.2
      thresh= 3.248E-08 alpha_mix =  0.700 |ddv_scf|^2 =  5.798E-15

      iter #   6 total cpu time :    19.0 secs   av.it.:   7.6
      thresh= 7.614E-09 alpha_mix =  0.700 |ddv_scf|^2 =  7.325E-18

      iter #   7 total cpu time :    19.8 secs   av.it.:   7.5
      thresh= 2.706E-10 alpha_mix =  0.700 |ddv_scf|^2 =  6.885E-19

     End of self-consistent calculation

     Convergence has been achieved 


     Representation #  5 mode #   7

     Self-consistent Calculation

      iter #   1 total cpu time :    20.2 secs   av.it.:   4.5
      thresh= 1.000E-02 alpha_mix =  0.700 |ddv_scf|^2 =  7.144E-06

      iter #   2 total cpu time :    20.6 secs   av.it.:   7.3
      thresh= 2.673E-04 alpha_mix =  0.700 |ddv_scf|^2 =  4.073E-07

      iter #   3 total cpu time :    21.0 secs   av.it.:   7.3
      thresh= 6.382E-05 alpha_mix =  0.700 |ddv_scf|^2 =  3.104E-09

      iter #   4 total cpu time :    21.4 secs   av.it.:   6.5
      thresh= 5.571E-06 alpha_mix =  0.700 |ddv_scf|^2 =  2.240E-11

      iter #   5 total cpu time :    21.8 secs   av.it.:   7.0
      thresh= 4.733E-07 alpha_mix =  0.700 |ddv_scf|^2 =  4.902E-13

      iter #   6 total cpu time :    22.1 secs   av.it.:   5.7
      thresh= 7.001E-08 alpha_mix =  0.700 |ddv_scf|^2 =  1.038E-15

      iter #   7 total cpu time :    22.5 secs   av.it.:   6.7
      thresh= 3.222E-09 alpha_mix =  0.700 |ddv_scf|^2 =  3.206E-17

      iter #   8 total cpu time :    22.9 secs   av.it.:   6.5
      thresh= 5.662E-10 alpha_mix =  0.700 |ddv_scf|^2 =  1.292E-19

     End of self-consistent calculation

     Convergence has been achieved 


     Representation #  6 mode #   8

     Self-consistent Calculation

      iter #   1 total cpu time :    23.3 secs   av.it.:   4.8
      thresh= 1.000E-02 alpha_mix =  0.700 |ddv_scf|^2 =  7.127E-06

      iter #   2 total cpu time :    23.7 secs   av.it.:   7.3
      thresh= 2.670E-04 alpha_mix =  0.700 |ddv_scf|^2 =  4.181E-07

      iter #   3 total cpu time :    24.1 secs   av.it.:   7.3
      thresh= 6.466E-05 alpha_mix =  0.700 |ddv_scf|^2 =  2.079E-09

      iter #   4 total cpu time :    24.4 secs   av.it.:   6.7
      thresh= 4.559E-06 alpha_mix =  0.700 |ddv_scf|^2 =  1.554E-11

      iter #   5 total cpu time :    24.8 secs   av.it.:   6.8
      thresh= 3.942E-07 alpha_mix =  0.700 |ddv_scf|^2 =  1.218E-13

      iter #   6 total cpu time :    25.2 secs   av.it.:   6.0
      thresh= 3.490E-08 alpha_mix =  0.700 |ddv_scf|^2 =  1.436E-15

      iter #   7 total cpu time :    25.6 secs   av.it.:   6.3
      thresh= 3.790E-09 alpha_mix =  0.700 |ddv_scf|^2 =  1.786E-17

      iter #   8 total cpu time :    26.0 secs   av.it.:   6.3
      thresh= 4.227E-10 alpha_mix =  0.700 |ddv_scf|^2 =  1.104E-19

     End of self-consistent calculation

     Convergence has been achieved 


     Representation #  7 modes #   9 10

     Self-consistent Calculation

      iter #   1 total cpu time :    26.7 secs   av.it.:   5.0
      thresh= 1.000E-02 alpha_mix =  0.700 |ddv_scf|^2 =  2.751E-07

      iter #   2 total cpu time :    27.5 secs   av.it.:   9.0
      thresh= 5.245E-05 alpha_mix =  0.700 |ddv_scf|^2 =  2.706E-09

      iter #   3 total cpu time :    28.3 secs   av.it.:   8.4
      thresh= 5.202E-06 alpha_mix =  0.700 |ddv_scf|^2 =  1.596E-10

      iter #   4 total cpu time :    29.1 secs   av.it.:   7.2
      thresh= 1.263E-06 alpha_mix =  0.700 |ddv_scf|^2 =  1.102E-13

      iter #   5 total cpu time :    29.9 secs   av.it.:   8.2
      thresh= 3.320E-08 alpha_mix =  0.700 |ddv_scf|^2 =  6.060E-15

      iter #   6 total cpu time :    30.7 secs   av.it.:   7.8
      thresh= 7.785E-09 alpha_mix =  0.700 |ddv_scf|^2 =  7.161E-18

      iter #   7 total cpu time :    31.5 secs   av.it.:   7.5
      thresh= 2.676E-10 alpha_mix =  0.700 |ddv_scf|^2 =  6.917E-19

     End of self-consistent calculation

     Convergence has been achieved 


     Representation #  8 modes #  11 12

     Self-consistent Calculation

      iter #   1 total cpu time :    32.2 secs   av.it.:   5.0
      thresh= 1.000E-02 alpha_mix =  0.700 |ddv_scf|^2 =  2.783E-07

      iter #   2 total cpu time :    33.1 secs   av.it.:   9.0
      thresh= 5.276E-05 alpha_mix =  0.700 |ddv_scf|^2 =  2.933E-09

      iter #   3 total cpu time :    33.9 secs   av.it.:   8.2
      thresh= 5.416E-06 alpha_mix =  0.700 |ddv_scf|^2 =  1.792E-10

      iter #   4 total cpu time :    34.7 secs   av.it.:   7.1
      thresh= 1.339E-06 alpha_mix =  0.700 |ddv_scf|^2 =  1.159E-13

      iter #   5 total cpu time :    35.6 secs   av.it.:   8.2
      thresh= 3.405E-08 alpha_mix =  0.700 |ddv_scf|^2 =  6.345E-15

      iter #   6 total cpu time :    36.4 secs   av.it.:   7.9
      thresh= 7.966E-09 alpha_mix =  0.700 |ddv_scf|^2 =  7.606E-18

      iter #   7 total cpu time :    37.2 secs   av.it.:   7.2
      thresh= 2.758E-10 alpha_mix =  0.700 |ddv_scf|^2 =  7.064E-19

     End of self-consistent calculation

     Convergence has been achieved 

     Number of q in the star =    1
     List of q in the star:
          1   0.000000000   0.000000000   0.000000000

     Diagonalizing the dynamical matrix

     q = (    0.000000000   0.000000000   0.000000000 ) 

 **************************************************************************
     freq (    1) =      -5.577697 [THz] =    -186.051951 [cm-1]
     freq (    2) =       1.837971 [THz] =      61.308104 [cm-1]
     freq (    3) =       3.918612 [THz] =     130.710819 [cm-1]
     freq (    4) =       3.918612 [THz] =     130.710819 [cm-1]
     freq (    5) =       4.315528 [THz] =     143.950515 [cm-1]
     freq (    6) =       4.315528 [THz] =     143.950515 [cm-1]
     freq (    7) =      25.192083 [THz] =     840.317453 [cm-1]
     freq (    8) =      25.442557 [THz] =     848.672358 [cm-1]
     freq (    9) =      47.201741 [THz] =    1574.480599 [cm-1]
     freq (   10) =      47.201741 [THz] =    1574.480599 [cm-1]
     freq (   11) =      47.675120 [THz] =    1590.270818 [cm-1]
     freq (   12) =      47.675120 [THz] =    1590.270818 [cm-1]
 **************************************************************************

     Mode symmetry, D_6h(6/mmm) point group:

     freq (  1 -  1) =       -186.1  [cm-1]   --> A_2u            I  
     freq (  2 -  2) =         61.3  [cm-1]   --> B_1g               
     freq (  3 -  4) =        130.7  [cm-1]   --> E_1u            I  
     freq (  5 -  6) =        144.0  [cm-1]   --> E_2g            R  
     freq (  7 -  7) =        840.3  [cm-1]   --> B_1g               
     freq (  8 -  8) =        848.7  [cm-1]   --> A_2u            I  
     freq (  9 - 10) =       1574.5  [cm-1]   --> E_2g            R  
     freq ( 11 - 12) =       1590.3  [cm-1]   --> E_1u            I  

     PHONON       :    36.44s CPU        37.21s WALL

     INITIALIZATION: 
     phq_setup    :      0.04s CPU      0.04s WALL (       1 calls)
     phq_init     :      0.60s CPU      0.61s WALL (       1 calls)

     phq_init     :      0.60s CPU      0.61s WALL (       1 calls)
     init_vloc    :      0.01s CPU      0.01s WALL (       1 calls)
     init_us_1    :      0.08s CPU      0.07s WALL (       1 calls)
     newd         :      0.00s CPU      0.01s WALL (       1 calls)
     dvanqq       :      0.20s CPU      0.20s WALL (       1 calls)
     drho         :      0.28s CPU      0.28s WALL (       1 calls)

     DYNAMICAL MATRIX:
     dynmat0      :      0.05s CPU      0.05s WALL (       1 calls)
     phqscf       :     35.26s CPU     36.01s WALL (       1 calls)
     dynmatrix    :      0.00s CPU      0.00s WALL (       1 calls)

     phqscf       :     35.26s CPU     36.01s WALL (       1 calls)
     solve_linter :     35.17s CPU     35.92s WALL (       8 calls)
     drhodv       :      0.08s CPU      0.08s WALL (       8 calls)

     dynmat0      :      0.05s CPU      0.05s WALL (       1 calls)
     dynmat_us    :      0.03s CPU      0.03s WALL (       1 calls)
     d2ionq       :      0.02s CPU      0.01s WALL (       1 calls)

     dynmat_us    :      0.03s CPU      0.03s WALL (       1 calls)
     addusdynmat  :      0.00s CPU      0.00s WALL (       1 calls)

     phqscf       :     35.26s CPU     36.01s WALL (       1 calls)
     solve_linter :     35.17s CPU     35.92s WALL (       8 calls)

     solve_linter :     35.17s CPU     35.92s WALL (       8 calls)
     dvqpsi_us    :      0.20s CPU      0.20s WALL (      72 calls)
     ortho        :      0.23s CPU      0.20s WALL (     534 calls)
     cgsolve      :     11.37s CPU     11.53s WALL (     534 calls)
     incdrhoscf   :      1.12s CPU      1.15s WALL (     534 calls)
     addusddens   :      0.66s CPU      0.64s WALL (      69 calls)
     vpsifft      :      0.88s CPU      0.92s WALL (     462 calls)
     dv_of_drho   :     18.12s CPU     18.58s WALL (      89 calls)
     mix_pot      :      0.06s CPU      0.09s WALL (      61 calls)
     psymdvscf    :      1.72s CPU      1.71s WALL (      61 calls)
     newdq        :      0.66s CPU      0.67s WALL (      61 calls)
     adddvscf     :      0.06s CPU      0.07s WALL (     462 calls)
     drhodvus     :      0.00s CPU      0.01s WALL (       8 calls)

     dvqpsi_us    :      0.20s CPU      0.20s WALL (      72 calls)
     dvqpsi_us_on :      0.04s CPU      0.04s WALL (      72 calls)

     cgsolve      :     11.37s CPU     11.53s WALL (     534 calls)
     ch_psi       :     11.16s CPU     11.32s WALL (    4904 calls)

     ch_psi       :     11.16s CPU     11.32s WALL (    4904 calls)
     last         :      1.66s CPU      1.62s WALL (    4904 calls)

     add_vuspsi   :      0.51s CPU      0.50s WALL (    4904 calls)

     incdrhoscf   :      1.12s CPU      1.15s WALL (     534 calls)
     addusdbec    :      0.11s CPU      0.12s WALL (     606 calls)

     drhodvus     :      0.00s CPU      0.01s WALL (       8 calls)

      General routines
     calbec       :      1.60s CPU      1.62s WALL (   11296 calls)
     fft          :      2.96s CPU      3.16s WALL (    9792 calls)
     ffts         :      0.06s CPU      0.07s WALL (     371 calls)
     fftw         :      9.28s CPU      9.48s WALL (   82534 calls)
     davcio       :      0.08s CPU      0.09s WALL (    2643 calls)
     write_rec    :      0.07s CPU      0.08s WALL (      69 calls)


     PHONON       :    36.44s CPU        37.21s WALL


   This run was terminated on:  17: 9:21  23Sep2016            

=------------------------------------------------------------------------------=
   JOB DONE.
=------------------------------------------------------------------------------=
