
     Program POST-PROC v.2.1cvs starts ...
     Today is  3Jun2005 at 12:23:17 
     Reading header from file  sicharge                                                                                                                                                                                                                                                        
     Reading data from file  sicharge                                                                                                                                                                                                                                                        
     Writing data on file si.rho.dat                                                                                                                                                                                                                                                      
     Min, Max, imaginary charge:     0.001409    0.087451    0.000000
     Output format:   2
