
     Program POST-PROC v.2.1cvs starts ...
     Today is  3Jun2005 at 12:23:17 

     Reading file si.save ...      only dimensions
     read complete

     Reading file si.save ...      all except wavefuctions
     read complete

     nbndx  =     4  nbnd   =     4  natomwfc =     8  npwx   =     350
     nelec  =   8.00  nkb   =     8  ngl    =      65

     Calling punch_plot, plot_num =   0
     Writing data on file  sicharge                                                                                                                                                                                                                                                        
