
     Program PWSCF v.5.0.2 starts on 26Apr2013 at 18:24:43 

     This program is part of the open-source Quantum ESPRESSO suite
     for quantum simulation of materials; please cite
         "P. Giannozzi et al., J. Phys.:Condens. Matter 21 395502 (2009);
          URL http://www.quantum-espresso.org", 
     in publications or presentations arising from this work. More details at
     http://www.quantum-espresso.org/quote.php

     Parallel version (MPI), running on     2 processors
     R & G space division:  proc/nbgrp/npool/nimage =       2
     Waiting for input...
     Reading input from standard input
     Message from routine read_cards :
     DEPRECATED: no units specified in ATOMIC_POSITIONS card
     Message from routine read_cards :
     ATOMIC_POSITIONS: units set to alat

     Current dimensions of program PWSCF are:
     Max number of different atomic species (ntypx) = 10
     Max number of k-points (npk) =  40000
     Max angular momentum in pseudopotentials (lmaxx) =  3

     IMPORTANT: XC functional enforced from input :
     Exchange-correlation      = GAUPBE ( 1 420 4 0)
     EXX-fraction              =        0.24
     Any further DFT definition will be discarded
     Please, verify this is what you really want


     Subspace diagonalization in iterative solution of the eigenvalue problem:
     a serial algorithm will be used

     EXX: grid of k+q point setup nkqs =         80
 
     Parallelization info
     --------------------
     sticks:   dense  smooth     PW     G-vecs:    dense   smooth      PW
     Min          81      81     30                  728      728     153
     Max          82      82     31                  731      731     154
     Sum         163     163     61                 1459     1459     307
 


     bravais-lattice index     =            2
     lattice parameter (alat)  =      10.2000  a.u.
     unit-cell volume          =     265.3020 (a.u.)^3
     number of atoms/cell      =            2
     number of atomic types    =            1
     number of electrons       =         8.00
     number of Kohn-Sham states=            8
     kinetic-energy cutoff     =      12.0000  Ry
     charge density cutoff     =      48.0000  Ry
     convergence threshold     =      1.0E-06
     mixing beta               =       0.7000
     number of iterations used =            8  plain     mixing
     Exchange-correlation      = GAUPBE ( 1 420 4 0)
     EXX-fraction              =        0.24

     celldm(1)=  10.200000  celldm(2)=   0.000000  celldm(3)=   0.000000
     celldm(4)=   0.000000  celldm(5)=   0.000000  celldm(6)=   0.000000

     crystal axes: (cart. coord. in units of alat)
               a(1) = (  -0.500000   0.000000   0.500000 )  
               a(2) = (   0.000000   0.500000   0.500000 )  
               a(3) = (  -0.500000   0.500000   0.000000 )  

     reciprocal axes: (cart. coord. in units 2 pi/alat)
               b(1) = ( -1.000000 -1.000000  1.000000 )  
               b(2) = (  1.000000  1.000000  1.000000 )  
               b(3) = ( -1.000000  1.000000 -1.000000 )  


     PseudoPot. # 1 for Si read from file:
     /home/sjoshua/espresso.20130425/pseudo/Si.pz-vbc.UPF
     MD5 check sum: 6dfa03ddd5817404712e03e4d12deb78
     Pseudo is Norm-conserving, Zval =  4.0
     Generated by new atomic code, or converted to UPF format
     Using radial grid of  431 points,  2 beta functions with: 
                l(1) =   0
                l(2) =   1

     atomic species   valence    mass     pseudopotential
        Si             4.00    28.08600     Si( 1.00)

     24 Sym. Ops. (no inversion) found
          (note: 24 additional sym.ops. were found but ignored
           their fractional translations are incommensurate with FFT grid)


   Cartesian axes

     site n.     atom                  positions (alat units)
         1           Si  tau(   1) = (   0.0000000   0.0000000   0.0000000  )
         2           Si  tau(   2) = (   0.2500000   0.2500000   0.2500000  )

     number of k points=    10
                       cart. coord. in units 2pi/alat
        k(    1) = (   0.1250000   0.1250000   0.1250000), wk =   0.0625000
        k(    2) = (   0.1250000   0.1250000   0.3750000), wk =   0.1875000
        k(    3) = (   0.1250000   0.1250000   0.6250000), wk =   0.1875000
        k(    4) = (   0.1250000   0.1250000   0.8750000), wk =   0.1875000
        k(    5) = (   0.1250000   0.3750000   0.3750000), wk =   0.1875000
        k(    6) = (   0.1250000   0.3750000   0.6250000), wk =   0.3750000
        k(    7) = (   0.1250000   0.3750000   0.8750000), wk =   0.3750000
        k(    8) = (   0.1250000   0.6250000   0.6250000), wk =   0.1875000
        k(    9) = (   0.3750000   0.3750000   0.3750000), wk =   0.0625000
        k(   10) = (   0.3750000   0.3750000   0.6250000), wk =   0.1875000

     Dense  grid:     1459 G-vectors     FFT dimensions: (  15,  15,  15)

     Largest allocated arrays     est. size (Mb)     dimensions
        Kohn-Sham Wavefunctions         0.01 Mb     (      99,    8)
        NL pseudopotentials             0.01 Mb     (      99,    8)
        Each V/rho on FFT grid          0.03 Mb     (    1800)
        Each G-vector array             0.01 Mb     (     728)
        G-vector shells                 0.00 Mb     (      43)
     Largest temporary arrays     est. size (Mb)     dimensions
        Auxiliary wavefunctions         0.05 Mb     (      99,   32)
        Each subspace H/S matrix        0.02 Mb     (      32,   32)
        Each <psi_i|beta_j> matrix      0.00 Mb     (       8,    8)
        Arrays for rho mixing           0.22 Mb     (    1800,    8)

     Initial potential from superposition of free atoms

     starting charge    7.99901, renormalised to    8.00000
     Starting wfc are    8 randomized atomic wfcs

     total cpu time spent up to now is        0.1 secs

     Self-consistent Calculation

     iteration #  1     ecut=    12.00 Ry     beta=0.70
     Davidson diagonalization with overlap
     ethr =  1.00E-02,  avg # of iterations =  3.7

     Threshold (ethr) on eigenvalues was too large:
     Diagonalizing with lowered threshold

     Davidson diagonalization with overlap
     ethr =  8.07E-04,  avg # of iterations =  1.0

     total cpu time spent up to now is        0.2 secs

     total energy              =     -15.82340180 Ry
     Harris-Foulkes estimate   =     -15.83974476 Ry
     estimated scf accuracy    <       0.06415505 Ry

     iteration #  2     ecut=    12.00 Ry     beta=0.70
     Davidson diagonalization with overlap
     ethr =  8.02E-04,  avg # of iterations =  1.0

     total cpu time spent up to now is        0.2 secs

     total energy              =     -15.82634547 Ry
     Harris-Foulkes estimate   =     -15.82635432 Ry
     estimated scf accuracy    <       0.00228159 Ry

     iteration #  3     ecut=    12.00 Ry     beta=0.70
     Davidson diagonalization with overlap
     ethr =  2.85E-05,  avg # of iterations =  1.9

     total cpu time spent up to now is        0.2 secs

     total energy              =     -15.82644721 Ry
     Harris-Foulkes estimate   =     -15.82643492 Ry
     estimated scf accuracy    <       0.00004971 Ry

     iteration #  4     ecut=    12.00 Ry     beta=0.70
     Davidson diagonalization with overlap
     ethr =  6.21E-07,  avg # of iterations =  2.3

     total cpu time spent up to now is        0.3 secs

     End of self-consistent calculation

          k = 0.1250 0.1250 0.1250 (   172 PWs)   bands (ev):

    -5.4476   4.7282   5.9961   5.9961   8.9449   9.3568   9.3569  11.1864

          k = 0.1250 0.1250 0.3750 (   180 PWs)   bands (ev):

    -4.9211   3.1160   4.9391   5.0502   8.5385  10.1246  10.8747  11.2285

          k = 0.1250 0.1250 0.6250 (   186 PWs)   bands (ev):

    -3.8637   1.4055   3.5835   4.0275   7.7542   9.3314  12.4143  12.7127

          k = 0.1250 0.1250 0.8750 (   192 PWs)   bands (ev):

    -2.3517  -0.4976   2.7928   3.5449   7.2968   8.3741  14.7162  14.7745

          k = 0.1250 0.3750 0.3750 (   187 PWs)   bands (ev):

    -4.4109   1.6834   3.9583   5.4867   9.1322  10.0722  10.2721  12.7293

          k = 0.1250 0.3750 0.6250 (   188 PWs)   bands (ev):

    -3.4332   0.4714   2.9371   4.3206   9.2854   9.9751  11.4585  12.3758

          k = 0.1250 0.3750 0.8750 (   189 PWs)   bands (ev):

    -2.1680  -0.5990   2.1708   3.2760   8.7959  10.7115  11.7004  13.8811

          k = 0.1250 0.6250 0.6250 (   184 PWs)   bands (ev):

    -2.6946  -0.3359   2.2539   4.3555   8.2625  11.9049  11.9153  13.4108

          k = 0.3750 0.3750 0.3750 (   183 PWs)   bands (ev):

    -3.9476   0.3457   5.1681   5.1681   8.1196   9.8727   9.8727  14.3023

          k = 0.3750 0.3750 0.6250 (   182 PWs)   bands (ev):

    -3.2022  -0.4691   3.9980   4.6816   8.6289   9.9414  10.5367  13.8202

     highest occupied, lowest unoccupied level (ev):     5.9961    7.2968

!    total energy              =     -15.82645315 Ry
     Harris-Foulkes estimate   =     -15.82645294 Ry
     estimated scf accuracy    <       0.00000021 Ry

     The total energy is the sum of the following terms:

     one-electron contribution =       4.81288870 Ry
     hartree contribution      =       1.10052850 Ry
     xc contribution           =      -4.84011177 Ry
     ewald contribution        =     -16.89975858 Ry
     - averaged Fock potential =       0.00000000 Ry
     + Fock energy             =       0.00000000 Ry

     convergence has been achieved in   4 iterations
     EXX: now go back to refine exchange calculation

     total cpu time spent up to now is        0.6 secs

     Self-consistent Calculation

     iteration #  1     ecut=    12.00 Ry     beta=0.70
     Davidson diagonalization with overlap
     ethr =  6.21E-07,  avg # of iterations =  3.7

     total cpu time spent up to now is        3.2 secs

     total energy              =     -15.85946369 Ry
     Harris-Foulkes estimate   =     -15.85950096 Ry
     estimated scf accuracy    <       0.00013871 Ry

     iteration #  2     ecut=    12.00 Ry     beta=0.70
     Davidson diagonalization with overlap
     ethr =  1.73E-06,  avg # of iterations =  1.0

     total cpu time spent up to now is        4.6 secs

     total energy              =     -15.85944851 Ry
     Harris-Foulkes estimate   =     -15.85947064 Ry
     estimated scf accuracy    <       0.00000582 Ry

     iteration #  3     ecut=    12.00 Ry     beta=0.70
     Davidson diagonalization with overlap
     ethr =  7.28E-08,  avg # of iterations =  1.4

     total cpu time spent up to now is        6.0 secs

     End of self-consistent calculation

          k = 0.1250 0.1250 0.1250 (   172 PWs)   bands (ev):

    -7.7182   3.9640   5.2661   5.2661   9.4099   9.7126   9.7126  11.9269

          k = 0.1250 0.1250 0.3750 (   180 PWs)   bands (ev):

    -7.1425   2.3134   4.1527   4.3424   8.8664  10.6181  11.3174  11.7131

          k = 0.1250 0.1250 0.6250 (   186 PWs)   bands (ev):

    -6.0032   0.5077   2.8198   3.1958   8.0493   9.7252  12.9623  13.2115

          k = 0.1250 0.1250 0.8750 (   192 PWs)   bands (ev):

    -4.2064  -1.7904   1.9654   2.6753   7.5997   8.7185  15.3332  15.4617

          k = 0.1250 0.3750 0.3750 (   187 PWs)   bands (ev):

    -6.5923   0.7975   3.1710   4.7716   9.6070  10.4175  10.7155  13.3177

          k = 0.1250 0.3750 0.6250 (   188 PWs)   bands (ev):

    -5.4463  -0.6603   2.1421   3.5573   9.6526  10.3993  11.9066  12.9117

          k = 0.1250 0.3750 0.8750 (   189 PWs)   bands (ev):

    -3.9272  -2.0378   1.3974   2.4503   9.1471  11.1033  12.1817  14.4703

          k = 0.1250 0.6250 0.6250 (   184 PWs)   bands (ev):

    -4.5352  -1.6731   1.4740   3.5486   8.6255  12.3807  12.4315  13.9822

          k = 0.3750 0.3750 0.3750 (   183 PWs)   bands (ev):

    -6.0994  -0.6251   4.4076   4.4076   8.5748  10.2720  10.2720  15.0380

          k = 0.3750 0.3750 0.6250 (   182 PWs)   bands (ev):

    -5.1265  -1.7255   3.2154   3.8615   9.0177  10.4198  10.9679  14.3847

     highest occupied, lowest unoccupied level (ev):     5.2661    7.5997

!    total energy              =     -15.85943949 Ry
     Harris-Foulkes estimate   =     -15.85944885 Ry
     estimated scf accuracy    <       0.00000011 Ry

     The total energy is the sum of the following terms:

     one-electron contribution =       3.03375722 Ry
     hartree contribution      =       1.11436710 Ry
     xc contribution           =      -3.99187033 Ry
     ewald contribution        =     -16.89975858 Ry
     - averaged Fock potential =       1.77265606 Ry
     + Fock energy             =      -0.88406510 Ry

     convergence has been achieved in   3 iterations
     est. exchange err (dexx)  =       0.00016166 Ry
     EXX: now go back to refine exchange calculation

     total cpu time spent up to now is        6.4 secs

     Self-consistent Calculation

     iteration #  1     ecut=    12.00 Ry     beta=0.70
     Davidson diagonalization with overlap
     ethr =  7.28E-08,  avg # of iterations =  3.0

     total cpu time spent up to now is        8.2 secs

     total energy              =     -15.85963460 Ry
     Harris-Foulkes estimate   =     -15.85962352 Ry
     estimated scf accuracy    <       0.00000586 Ry

     iteration #  2     ecut=    12.00 Ry     beta=0.70
     Davidson diagonalization with overlap
     ethr =  7.33E-08,  avg # of iterations =  1.0

     total cpu time spent up to now is        9.6 secs

     End of self-consistent calculation

          k = 0.1250 0.1250 0.1250 (   172 PWs)   bands (ev):

    -7.7110   3.9538   5.2381   5.2381   9.4317   9.7303   9.7303  11.9387

          k = 0.1250 0.1250 0.3750 (   180 PWs)   bands (ev):

    -7.1360   2.3109   4.1362   4.3291   8.8832  10.6310  11.3242  11.7232

          k = 0.1250 0.1250 0.6250 (   186 PWs)   bands (ev):

    -5.9987   0.5054   2.8142   3.1834   8.0679   9.7384  12.9671  13.2136

          k = 0.1250 0.1250 0.8750 (   192 PWs)   bands (ev):

    -4.2081  -1.7957   1.9654   2.6637   7.6225   8.7308  15.3374  15.4671

          k = 0.1250 0.3750 0.3750 (   187 PWs)   bands (ev):

    -6.5861   0.7958   3.1634   4.7501   9.6268  10.4298  10.7243  13.3286

          k = 0.1250 0.3750 0.6250 (   188 PWs)   bands (ev):

    -5.4427  -0.6621   2.1424   3.5462   9.6644  10.4087  11.9144  12.9137

          k = 0.1250 0.3750 0.8750 (   189 PWs)   bands (ev):

    -3.9275  -2.0407   1.4019   2.4454   9.1584  11.1080  12.1888  14.4778

          k = 0.1250 0.6250 0.6250 (   184 PWs)   bands (ev):

    -4.5366  -1.6748   1.4790   3.5341   8.6467  12.3879  12.4349  13.9912

          k = 0.3750 0.3750 0.3750 (   183 PWs)   bands (ev):

    -6.0965  -0.6241   4.3839   4.3839   8.5961  10.2917  10.2917  15.0547

          k = 0.3750 0.3750 0.6250 (   182 PWs)   bands (ev):

    -5.1275  -1.7238   3.2097   3.8437   9.0370  10.4287  10.9773  14.3920

     highest occupied, lowest unoccupied level (ev):     5.2381    7.6225

!    total energy              =     -15.85963598 Ry
     Harris-Foulkes estimate   =     -15.85963500 Ry
     estimated scf accuracy    <       0.00000013 Ry

     The total energy is the sum of the following terms:

     one-electron contribution =       3.02663174 Ry
     hartree contribution      =       1.11785185 Ry
     xc contribution           =      -3.99311362 Ry
     ewald contribution        =     -16.89975858 Ry
     - averaged Fock potential =       1.77815744 Ry
     + Fock energy             =      -0.88875263 Ry

     convergence has been achieved in   2 iterations
     est. exchange err (dexx)  =       0.00000314 Ry
     EXX: now go back to refine exchange calculation

     total cpu time spent up to now is       10.0 secs

     Self-consistent Calculation

     iteration #  1     ecut=    12.00 Ry     beta=0.70
     Davidson diagonalization with overlap
     ethr =  7.33E-08,  avg # of iterations =  1.8

     Threshold (ethr) on eigenvalues was too large:
     Diagonalizing with lowered threshold

     Davidson diagonalization with overlap
     ethr =  1.64E-09,  avg # of iterations =  1.8

     total cpu time spent up to now is       12.7 secs

     End of self-consistent calculation

          k = 0.1250 0.1250 0.1250 (   172 PWs)   bands (ev):

    -7.7104   3.9530   5.2350   5.2350   9.4332   9.7328   9.7328  11.9392

          k = 0.1250 0.1250 0.3750 (   180 PWs)   bands (ev):

    -7.1355   2.3105   4.1346   4.3275   8.8848  10.6323  11.3251  11.7245

          k = 0.1250 0.1250 0.6250 (   186 PWs)   bands (ev):

    -5.9979   0.5039   2.8136   3.1821   8.0698   9.7400  12.9678  13.2143

          k = 0.1250 0.1250 0.8750 (   192 PWs)   bands (ev):

    -4.2079  -1.7973   1.9654   2.6626   7.6249   8.7322  15.3391  15.4681

          k = 0.1250 0.3750 0.3750 (   187 PWs)   bands (ev):

    -6.5853   0.7949   3.1627   4.7476   9.6285  10.4319  10.7249  13.3301

          k = 0.1250 0.3750 0.6250 (   188 PWs)   bands (ev):

    -5.4422  -0.6630   2.1424   3.5448   9.6658  10.4099  11.9157  12.9140

          k = 0.1250 0.3750 0.8750 (   189 PWs)   bands (ev):

    -3.9276  -2.0413   1.4021   2.4448   9.1595  11.1086  12.1900  14.4793

          k = 0.1250 0.6250 0.6250 (   184 PWs)   bands (ev):

    -4.5371  -1.6752   1.4794   3.5326   8.6488  12.3893  12.4350  13.9928

          k = 0.3750 0.3750 0.3750 (   183 PWs)   bands (ev):

    -6.0957  -0.6249   4.3812   4.3812   8.5975  10.2945  10.2945  15.0565

          k = 0.3750 0.3750 0.6250 (   182 PWs)   bands (ev):

    -5.1278  -1.7241   3.2093   3.8420   9.0389  10.4294  10.9789  14.3937

     highest occupied, lowest unoccupied level (ev):     5.2350    7.6249

!    total energy              =     -15.85964280 Ry
     Harris-Foulkes estimate   =     -15.85963957 Ry
     estimated scf accuracy    <       0.00000013 Ry

     The total energy is the sum of the following terms:

     one-electron contribution =       3.02552604 Ry
     hartree contribution      =       1.11853507 Ry
     xc contribution           =      -3.99335329 Ry
     ewald contribution        =     -16.89975858 Ry
     - averaged Fock potential =       1.77891845 Ry
     + Fock energy             =      -0.88940795 Ry

     convergence has been achieved in   1 iterations
     est. exchange err (dexx)  =       0.00000009 Ry

     End of self-consistent calculation

     Writing output data file silicon.save
 
     init_run     :      0.05s CPU      0.06s WALL (       1 calls)
     electrons    :     11.36s CPU     11.49s WALL (       4 calls)

     Called by init_run:
     wfcinit      :      0.01s CPU      0.01s WALL (       1 calls)
     potinit      :      0.01s CPU      0.01s WALL (       1 calls)

     Called by electrons:
     c_bands      :      9.61s CPU      9.71s WALL (      12 calls)
     sum_band     :      0.06s CPU      0.05s WALL (      12 calls)
     v_of_rho     :      0.03s CPU      0.03s WALL (      12 calls)
     mix_rho      :      0.00s CPU      0.00s WALL (      12 calls)

     Called by c_bands:
     init_us_2    :      0.01s CPU      0.01s WALL (     250 calls)
     cegterg      :      9.60s CPU      9.70s WALL (     120 calls)

     Called by *egterg:
     h_psi        :      9.49s CPU      9.59s WALL (     366 calls)
     g_psi        :      0.01s CPU      0.00s WALL (     236 calls)
     cdiaghg      :      0.06s CPU      0.07s WALL (     306 calls)

     Called by h_psi:
     add_vuspsi   :      0.01s CPU      0.00s WALL (     366 calls)

     General routines
     calbec       :      0.01s CPU      0.01s WALL (     366 calls)
     fft          :      0.01s CPU      0.01s WALL (     129 calls)
     ffts         :      7.23s CPU      7.45s WALL (  114432 calls)
     fftw         :      0.39s CPU      0.41s WALL (    9722 calls)
     davcio       :      0.00s CPU      0.00s WALL (      10 calls)
 
     Parallel routines
     fft_scatter  :      2.85s CPU      3.26s WALL (  124283 calls)
     EXX routines
     exx_grid     :      0.00s CPU      0.00s WALL (       1 calls)
     exxinit      :      0.29s CPU      0.30s WALL (       4 calls)
     vexx         :      9.27s CPU      9.36s WALL (     207 calls)
     exxen2       :      2.78s CPU      2.81s WALL (      10 calls)
 
     PWSCF        :    12.92s CPU        13.09s WALL

 
   This run was terminated on:  18:24:56  26Apr2013            

=------------------------------------------------------------------------------=
   JOB DONE.
=------------------------------------------------------------------------------=
