
     Program PHONON v.> 4.2     starts on 20Jan2011 at 16:44: 2 

     This program is part of the open-source Quantum ESPRESSO suite
     for quantum simulation of materials; please cite
         "P. Giannozzi et al., J. Phys.:Condens. Matter 21 395502 (2009);
          URL http://www.quantum-espresso.org", 
     in publications or presentations arising from this work. More details at
     http://www.quantum-espresso.org/wiki/index.php/Citing_Quantum-ESPRESSO

     Parallel version (MPI), running on     1 processors

     Ultrasoft (Vanderbilt) Pseudopotentials

   Info: using nr1, nr2, nr3 values from input

   Info: using nr1s, nr2s, nr3s values from input
     file O.pbe-rrkjus.UPF: wavefunction(s)  2S renormalized
 
   Stick Mesh
   ----------
   nst =  3985,  nstw =   357, nsts =  1433
               n.st   n.stw   n.sts    n.g    n.gw   n.gs
   min        3985     357    1433  189047    5041   40651
   max        3985     357    1433  189047    5041   40651
       3985     357    1433  189047    5041   40651
 

     Calculation of q =    0.0000000   0.0000000   0.0000000

                                                                                

     bravais-lattice index     =            1
     lattice parameter (a_0)   =      10.0000  a.u.
     unit-cell volume          =    1000.0000 (a.u.)^3
     number of atoms/cell      =            2
     number of atomic types    =            1
     kinetic-energy cut-off    =      45.0000  Ry
     charge density cut-off    =     500.0000  Ry
     convergence threshold     =      1.0E-15
     beta                      =       0.7000
     number of iterations used =            4
     Exchange-correlation      =  SLA  PW   PBE  PBE (1434)
     EXX-fraction              =        0.00


     celldm(1)=   10.00000  celldm(2)=    0.00000  celldm(3)=    0.00000
     celldm(4)=    0.00000  celldm(5)=    0.00000  celldm(6)=    0.00000

     crystal axes: (cart. coord. in units of a_0)
               a(1) = (  1.0000  0.0000  0.0000 )  
               a(2) = (  0.0000  1.0000  0.0000 )  
               a(3) = (  0.0000  0.0000  1.0000 )  

     reciprocal axes: (cart. coord. in units 2 pi/a_0)
               b(1) = (  1.0000  0.0000  0.0000 )  
               b(2) = (  0.0000  1.0000  0.0000 )  
               b(3) = (  0.0000  0.0000  1.0000 )  


     Atoms inside the unit cell: 

   Cartesian axes

     site n.  atom      mass           positions (a_0 units)
        1        O   15.9994   tau( 1) = (   -0.11697    0.00000    0.00000  )
        2        O   15.9994   tau( 2) = (    0.11697    0.00000    0.00000  )

     Computing dynamical matrix for 
                    q = (   0.0000000   0.0000000   0.0000000 )
 
     17 Sym.Ops. (with q -> -q+G )


     G cutoff = 1266.5148  ( 189047 G-vectors)     FFT grid: ( 72, 72, 72)
     G cutoff =  455.9453  (  40651 G-vectors)  smooth grid: ( 45, 45, 45)
     number of k points=     2
                       cart. coord. in units 2pi/a_0
        k(    1) = (   0.0000000   0.0000000   0.0000000), wk =   1.0000000
        k(    2) = (   0.0000000   0.0000000   0.0000000), wk =   1.0000000

     PseudoPot. # 1 for O  read from file O.pbe-rrkjus.UPF
     MD5 check sum: 390ba29e75625707450f3bd3f0eb6be9
     Pseudo is Ultrasoft, Zval =  6.0
     Generated by new atomic code, or converted to UPF format
     Using radial grid of 1269 points,  4 beta functions with: 
                l(1) =   0
                l(2) =   0
                l(3) =   1
                l(4) =   1
     Q(r) pseudized with 0 coefficients 


     k=gamma and q=gamma tricks are used


     Electric field:
     Dielectric constant and polarizability
     Born effective charges in two ways 


     Atomic displacements:
     There are   6 irreducible representations

     Representation     1      1 modes - To be done

     Representation     2      1 modes - To be done

     Representation     3      1 modes - To be done

     Representation     4      1 modes - Calculated using symmetry

     Representation     5      1 modes - Calculated using symmetry

     Representation     6      1 modes - Calculated using symmetry



     Alpha used in Ewald sum =   2.8000
     PHONON       :    13.51s CPU        17.60s WALL


     Electric Fields Calculation

      iter #   1 total cpu time :    30.4 secs   av.it.:   4.7
      thresh= 0.100E-01 alpha_mix =  0.700 |ddv_scf|^2 =  0.110E-05

      iter #   2 total cpu time :    42.9 secs   av.it.:   8.0
      thresh= 0.105E-03 alpha_mix =  0.700 |ddv_scf|^2 =  0.239E-06

      iter #   3 total cpu time :    57.1 secs   av.it.:   7.7
      thresh= 0.489E-04 alpha_mix =  0.700 |ddv_scf|^2 =  0.716E-06

      iter #   4 total cpu time :    74.8 secs   av.it.:   6.0
      thresh= 0.846E-04 alpha_mix =  0.700 |ddv_scf|^2 =  0.375E-08

      iter #   5 total cpu time :    90.6 secs   av.it.:   8.0
      thresh= 0.612E-05 alpha_mix =  0.700 |ddv_scf|^2 =  0.180E-09

      iter #   6 total cpu time :   106.0 secs   av.it.:   8.3
      thresh= 0.134E-05 alpha_mix =  0.700 |ddv_scf|^2 =  0.132E-10

      iter #   7 total cpu time :   122.8 secs   av.it.:   7.7
      thresh= 0.363E-06 alpha_mix =  0.700 |ddv_scf|^2 =  0.166E-11

      iter #   8 total cpu time :   137.4 secs   av.it.:   8.0
      thresh= 0.129E-06 alpha_mix =  0.700 |ddv_scf|^2 =  0.801E-13

      iter #   9 total cpu time :   151.7 secs   av.it.:   7.7
      thresh= 0.283E-07 alpha_mix =  0.700 |ddv_scf|^2 =  0.406E-13

      iter #  10 total cpu time :   166.8 secs   av.it.:   7.7
      thresh= 0.202E-07 alpha_mix =  0.700 |ddv_scf|^2 =  0.385E-14

      iter #  11 total cpu time :   178.1 secs   av.it.:   8.2
      thresh= 0.621E-08 alpha_mix =  0.700 |ddv_scf|^2 =  0.522E-16

     End of electric fields calculation

          Dielectric constant in cartesian axis 

          (       1.206782900       0.000000000       0.000000000 )
          (       0.000000000       1.114029451       0.000000000 )
          (       0.000000000       0.000000000       1.114029451 )

     Polarizability (a.u.)^3                    Polarizability (A^3)
     15.39      0.00      0.00             2.2812        0.0000        0.0000
      0.00      8.74      0.00             0.0000        1.2954        0.0000
      0.00      0.00      8.74             0.0000        0.0000        1.2954

          Effective charges (d Force / dE) in cartesian axis

           atom      1   O  
      Ex  (        0.08109        0.00000        0.00000 )
      Ey  (        0.00000       -0.00984        0.00000 )
      Ez  (        0.00000        0.00000       -0.00984 )
           atom      2   O  
      Ex  (        0.08109        0.00000        0.00000 )
      Ey  (        0.00000       -0.00984        0.00000 )
      Ez  (        0.00000        0.00000       -0.00984 )


     Representation #  1 mode #   1

     Self-consistent Calculation

      iter #   1 total cpu time :   192.0 secs   av.it.:   6.5
      thresh= 0.100E-01 alpha_mix =  0.700 |ddv_scf|^2 =  0.628E-06

      iter #   2 total cpu time :   202.0 secs   av.it.:  10.5
      thresh= 0.793E-04 alpha_mix =  0.700 |ddv_scf|^2 =  0.132E-05

      iter #   3 total cpu time :   206.9 secs   av.it.:   9.5
      thresh= 0.115E-03 alpha_mix =  0.700 |ddv_scf|^2 =  0.135E-06

      iter #   4 total cpu time :   212.1 secs   av.it.:   9.5
      thresh= 0.367E-04 alpha_mix =  0.700 |ddv_scf|^2 =  0.300E-08

      iter #   5 total cpu time :   217.5 secs   av.it.:   9.5
      thresh= 0.548E-05 alpha_mix =  0.700 |ddv_scf|^2 =  0.219E-09

      iter #   6 total cpu time :   222.9 secs   av.it.:   9.5
      thresh= 0.148E-05 alpha_mix =  0.700 |ddv_scf|^2 =  0.551E-11

      iter #   7 total cpu time :   228.2 secs   av.it.:   9.0
      thresh= 0.235E-06 alpha_mix =  0.700 |ddv_scf|^2 =  0.149E-11

      iter #   8 total cpu time :   233.5 secs   av.it.:   9.5
      thresh= 0.122E-06 alpha_mix =  0.700 |ddv_scf|^2 =  0.211E-13

      iter #   9 total cpu time :   238.7 secs   av.it.:   9.5
      thresh= 0.145E-07 alpha_mix =  0.700 |ddv_scf|^2 =  0.117E-14

      iter #  10 total cpu time :   243.1 secs   av.it.:  10.0
      thresh= 0.343E-08 alpha_mix =  0.700 |ddv_scf|^2 =  0.731E-15

     End of self-consistent calculation

     Convergence has been achieved 


     Representation #  2 mode #   2

     Self-consistent Calculation

      iter #   1 total cpu time :   248.9 secs   av.it.:   5.5
      thresh= 0.100E-01 alpha_mix =  0.700 |ddv_scf|^2 =  0.496E-06

      iter #   2 total cpu time :   253.7 secs   av.it.:   9.5
      thresh= 0.704E-04 alpha_mix =  0.700 |ddv_scf|^2 =  0.459E-06

      iter #   3 total cpu time :   258.7 secs   av.it.:   7.0
      thresh= 0.677E-04 alpha_mix =  0.700 |ddv_scf|^2 =  0.223E-06

      iter #   4 total cpu time :   263.8 secs   av.it.:   7.5
      thresh= 0.472E-04 alpha_mix =  0.700 |ddv_scf|^2 =  0.245E-08

      iter #   5 total cpu time :   269.1 secs   av.it.:   7.5
      thresh= 0.495E-05 alpha_mix =  0.700 |ddv_scf|^2 =  0.423E-09

      iter #   6 total cpu time :   274.2 secs   av.it.:   6.5
      thresh= 0.206E-05 alpha_mix =  0.700 |ddv_scf|^2 =  0.104E-10

      iter #   7 total cpu time :   279.5 secs   av.it.:   7.0
      thresh= 0.323E-06 alpha_mix =  0.700 |ddv_scf|^2 =  0.273E-12

      iter #   8 total cpu time :   284.7 secs   av.it.:   6.5
      thresh= 0.522E-07 alpha_mix =  0.700 |ddv_scf|^2 =  0.175E-13

      iter #   9 total cpu time :   288.9 secs   av.it.:   7.0
      thresh= 0.132E-07 alpha_mix =  0.700 |ddv_scf|^2 =  0.661E-15

     End of self-consistent calculation

     Convergence has been achieved 


     Representation #  3 mode #   3

     Self-consistent Calculation

      iter #   1 total cpu time :   293.9 secs   av.it.:   5.5
      thresh= 0.100E-01 alpha_mix =  0.700 |ddv_scf|^2 =  0.496E-06

      iter #   2 total cpu time :   299.1 secs   av.it.:   9.5
      thresh= 0.704E-04 alpha_mix =  0.700 |ddv_scf|^2 =  0.459E-06

      iter #   3 total cpu time :   304.0 secs   av.it.:   7.0
      thresh= 0.677E-04 alpha_mix =  0.700 |ddv_scf|^2 =  0.223E-06

      iter #   4 total cpu time :   309.7 secs   av.it.:   7.5
      thresh= 0.472E-04 alpha_mix =  0.700 |ddv_scf|^2 =  0.245E-08

      iter #   5 total cpu time :   315.2 secs   av.it.:   7.5
      thresh= 0.495E-05 alpha_mix =  0.700 |ddv_scf|^2 =  0.423E-09

      iter #   6 total cpu time :   320.2 secs   av.it.:   6.5
      thresh= 0.206E-05 alpha_mix =  0.700 |ddv_scf|^2 =  0.104E-10

      iter #   7 total cpu time :   325.3 secs   av.it.:   7.0
      thresh= 0.323E-06 alpha_mix =  0.700 |ddv_scf|^2 =  0.273E-12

      iter #   8 total cpu time :   330.2 secs   av.it.:   6.5
      thresh= 0.522E-07 alpha_mix =  0.700 |ddv_scf|^2 =  0.175E-13

      iter #   9 total cpu time :   334.3 secs   av.it.:   7.0
      thresh= 0.132E-07 alpha_mix =  0.700 |ddv_scf|^2 =  0.661E-15

     End of self-consistent calculation

     Convergence has been achieved 
 
     Number of q in the star =    1
     List of q in the star:
          1   0.000000000   0.000000000   0.000000000

          Dielectric constant in cartesian axis 

          (       1.206782900       0.000000000       0.000000000 )
          (       0.000000000       1.114029451       0.000000000 )
          (       0.000000000       0.000000000       1.114029451 )

     Polarizability (a.u.)^3                    Polarizability (A^3)
     15.39      0.00      0.00             2.2812        0.0000        0.0000
      0.00      8.74      0.00             0.0000        1.2954        0.0000
      0.00      0.00      8.74             0.0000        0.0000        1.2954

          Effective charges (d Force / dE) in cartesian axis

           atom      1   O  
      Ex  (        0.08109        0.00000        0.00000 )
      Ey  (        0.00000       -0.00984        0.00000 )
      Ez  (        0.00000        0.00000       -0.00984 )
           atom      2   O  
      Ex  (        0.08109        0.00000        0.00000 )
      Ey  (        0.00000       -0.00984        0.00000 )
      Ez  (        0.00000        0.00000       -0.00984 )

          Effective charges (d P / du) in cartesian axis 

           atom      1   O  
      Px  (        0.08072        0.00000        0.00000 )
      Py  (        0.00000       -0.00983        0.00000 )
      Pz  (        0.00000        0.00000       -0.00983 )
           atom      2   O  
      Px  (        0.08072        0.00000        0.00000 )
      Py  (        0.00000       -0.00983        0.00000 )
      Pz  (        0.00000        0.00000       -0.00983 )

     Diagonalizing the dynamical matrix

     q = (    0.000000000   0.000000000   0.000000000 ) 

 **************************************************************************
     omega( 1) =      -1.726563 [THz] =     -57.591947 [cm-1]
     omega( 2) =      -1.726563 [THz] =     -57.591946 [cm-1]
     omega( 3) =      -1.148961 [THz] =     -38.325223 [cm-1]
     omega( 4) =      -1.148961 [THz] =     -38.325221 [cm-1]
     omega( 5) =       1.466079 [THz] =      48.903134 [cm-1]
     omega( 6) =      46.759841 [THz] =    1559.740417 [cm-1]
 **************************************************************************

     Mode symmetry, D_4h(4/mmm) point group:

     omega(  6 -  6) =       1559.7  [cm-1]   --> A_1g X_1  M_1   R  

 **************************************************************************
 
     PHONON       :  2m18.53s CPU     5m36.66s WALL

     INITIALIZATION: 
     phq_setup    :      2.42s CPU      2.80s WALL (       1 calls)
     phq_init     :      9.47s CPU     11.95s WALL (       1 calls)
 
     phq_init     :      9.47s CPU     11.95s WALL (       1 calls)
     init_vloc    :      0.01s CPU      0.01s WALL (       1 calls)
     init_us_1    :      0.33s CPU      0.34s WALL (       1 calls)
     newd         :      0.28s CPU      0.42s WALL (       1 calls)
     dvanqq       :      4.77s CPU      5.04s WALL (       1 calls)
     drho         :      2.89s CPU      5.06s WALL (       1 calls)
     cmpt_qdipol  :      0.00s CPU      0.00s WALL (       1 calls)
 
     DIELECTRIC CONSTANT AND EFFECTIVE CHARGES:
     solve_e      :     63.73s CPU    161.73s WALL (       1 calls)
     dielec       :      0.00s CPU      0.02s WALL (       1 calls)
     zstar_eu     :      4.07s CPU      7.24s WALL (       1 calls)
 
     DYNAMICAL MATRIX:
     dynmat0      :      0.19s CPU      0.21s WALL (       1 calls)
     phqscf       :     57.19s CPU    149.20s WALL (       1 calls)
     dynmatrix    :      0.01s CPU      0.03s WALL (       1 calls)
 
     phqscf       :     57.19s CPU    149.20s WALL (       1 calls)
     solve_linter :     56.88s CPU    147.33s WALL (       3 calls)
     drhodv       :      0.09s CPU      0.10s WALL (       3 calls)
     add_zstar_ue :      0.01s CPU      0.04s WALL (       3 calls)
     add_zstar_us :      0.19s CPU      0.29s WALL (       3 calls)
 
     dynmat0      :      0.19s CPU      0.21s WALL (       1 calls)
     dynmat_us    :      0.13s CPU      0.13s WALL (       1 calls)
     d2ionq       :      0.05s CPU      0.05s WALL (       1 calls)
 
     dynmat_us    :      0.13s CPU      0.13s WALL (       1 calls)
     addusdynmat  :      0.00s CPU      0.00s WALL (       1 calls)
 
     phqscf       :     57.19s CPU    149.20s WALL (       1 calls)
     solve_linter :     56.88s CPU    147.33s WALL (       3 calls)
 
     solve_linter :     56.88s CPU    147.33s WALL (       3 calls)
     dvqpsi_us    :      0.68s CPU      0.71s WALL (      18 calls)
     ortho        :      0.21s CPU      0.21s WALL (     128 calls)
     cgsolve      :     40.09s CPU     40.29s WALL (     128 calls)
     incdrhoscf   :      3.88s CPU      3.89s WALL (     128 calls)
     addusddens   :     11.42s CPU     18.31s WALL (      34 calls)
     vpsifft      :      1.43s CPU      1.45s WALL (      50 calls)
     dv_of_drho   :     34.48s CPU     80.10s WALL (      64 calls)
     mix_pot      :      3.46s CPU     99.91s WALL (      39 calls)
     newdq        :     16.94s CPU     24.49s WALL (      39 calls)
     adddvscf     :      0.09s CPU      0.09s WALL (     110 calls)
     drhodvus     :      0.05s CPU      0.40s WALL (       3 calls)
 
     dvqpsi_us    :      0.68s CPU      0.71s WALL (      18 calls)
     dvqpsi_us_on :      0.02s CPU      0.02s WALL (      18 calls)
 
     cgsolve      :     40.09s CPU     40.29s WALL (     128 calls)
     ch_psi       :     39.50s CPU     39.71s WALL (    1321 calls)
 
     ch_psi       :     39.50s CPU     39.71s WALL (    1321 calls)
     h_psiq       :     37.37s CPU     37.54s WALL (    1321 calls)
     last         :      2.06s CPU      2.09s WALL (    1321 calls)
 
     h_psiq       :     37.37s CPU     37.54s WALL (    1321 calls)
     firstfft     :     19.80s CPU     19.91s WALL (    6498 calls)
     secondfft    :     14.38s CPU     14.48s WALL (    6498 calls)
     add_vuspsi   :      0.68s CPU      0.66s WALL (    1321 calls)
 
     incdrhoscf   :      3.88s CPU      3.89s WALL (     128 calls)
     addusdbec    :      0.10s CPU      0.09s WALL (     140 calls)
 
     drhodvus     :      0.05s CPU      0.40s WALL (       3 calls)
 
      General routines
     calbec       :      1.62s CPU      1.62s WALL (    3398 calls)
     fft          :     23.89s CPU     26.29s WALL (    1899 calls)
     ffts         :      0.87s CPU      0.89s WALL (     306 calls)
     fftw         :     37.84s CPU     38.05s WALL (   16190 calls)
     cinterpolate :      4.39s CPU      4.59s WALL (     262 calls)
     davcio       :      0.04s CPU     37.21s WALL (    1076 calls)
     write_rec    :      0.20s CPU     31.74s WALL (      42 calls)
 
