                                                                  \      /  |         
                                       ``:oss/                     \    /   |         
                           `.+s+.     .+ys--yh+     `./ss+.         \  /    |   |     
                          -sh//yy+`   +yy   +yy    -+h+-oyy          \/     |----     
                          -yh- .oyy/.-sh.   .syo-.:sy-  /yh                     |     
                 `.-.`    `yh+   -oyyyo.     `/syys:    oys      `.`                  
               `/+ssys+-` `sh+      `                   oys`   .:osyo`                
               -yh- ./syyooyo`                          .sys+/oyo--yh/                
               `yy+    .-:-.                             `-/+/:`  -sh-                
                /yh.                                              oys                 
          ``..---hho---------`   .---------..`      `.-----.`    -hd+---.             
       `./osmNMMMMMMMMMMMMMMMs. +NNMMMMMMMMNNmh+.   yNMMMMMNm-  oNMMMMMNmo++:`        
       +sy--/sdMMMhyyyyyyyNMMh- .oyNMMmyyyyyhNMMm+` -yMMMdyyo:` .oyyNMMNhs+syy`       
       -yy/   /MMM+.`-+/``mMMy-   `mMMh:`````.dMMN:` `MMMy-`-dhhy```mMMy:``+hs        
        -yy+` /MMMo:-mMM+`-oo/.    mMMh:     `dMMN/`  dMMm:`dMMMMy..MMMo-.+yo`        
         .sys`/MMMMNNMMMs-         mMMmyooooymMMNo:   oMMM/sMMMMMM++MMN//oh:          
          `sh+/MMMhyyMMMs- `-`     mMMMMMMMMMNmy+-`   -MMMhMMMsmMMmdMMd/yy+           
    `-/+++oyy-/MMM+.`/hh/.`mNm:`   mMMd+/////:-.`      NMMMMMd/:NMMMMMy:/yyo/:.`      
   +os+//:-..-oMMMo:--:::-/MMMo. .-mMMd+---`           hMMMMN+. oMMMMMo. `-+osyso:`   
   syo     `mNMMMMMNNNNNNNNMMMo.oNNMMMMMNNNN:`         +MMMMs:`  dMMMN/`     ``:syo   
   /yh`     :syyyyyyyyyyyyyyyy+.`+syyyyyyyyo:`         .oyys:`   .oyys:`        +yh   
   -yh-        ````````````````    `````````              ``        ``          oys   
   -+h/------------------------::::::::://////++++++++++++++++++++++///////::::/yd:   
   shdddddddddddddddddddddddddddddhhhhhhhhyyyyyssssssssssssssssyyyyyyyhhhhhhhddddh`   
                                                                                      

     Program EPW v.4.0.0 (svn rev. 12139) starts on  1Mar2016 at 16: 8:20 

     This program is part of the open-source Quantum ESPRESSO suite
     for quantum simulation of materials; please cite
         "P. Giannozzi et al., J. Phys.:Condens. Matter 21 395502 (2009);
          URL http://www.quantum-espresso.org", 
     in publications or presentations arising from this work. More details at
     http://www.quantum-espresso.org/quote

     Parallel version (MPI), running on     4 processors
     K-points division:     npool     =       4

     Reading data from directory:
     ./pb.save

   Info: using nr1, nr2, nr3 values from input

   Info: using nr1, nr2, nr3 values from input

     IMPORTANT: XC functional enforced from input :
     Exchange-correlation      = PZ ( 1  1  0  0 0 0)
     Any further DFT definition will be discarded
     Please, verify this is what you really want


     G-vector sticks info
     --------------------
     sticks:   dense  smooth     PW     G-vecs:    dense   smooth      PW
     Sum         703     703    211                12387    12387    2109


     --                                                                         

     bravais-lattice index     =            2
     lattice parameter (a_0)   =       9.2700  a.u.
     unit-cell volume          =     199.1495 (a.u.)^3
     number of atoms/cell      =            1
     number of atomic types    =            1
     kinetic-energy cut-off    =      60.0000  Ry
     charge density cut-off    =     240.0000  Ry
     convergence threshold     =      0.0E+00
     beta                      =       0.0000
     number of iterations used =            0
     Exchange-correlation      = PZ ( 1  1  0  0 0 0)


     celldm(1)=    9.27000  celldm(2)=    0.00000  celldm(3)=    0.00000
     celldm(4)=    0.00000  celldm(5)=    0.00000  celldm(6)=    0.00000

     crystal axes: (cart. coord. in units of a_0)
               a(1) = ( -0.5000  0.0000  0.5000 )  
               a(2) = (  0.0000  0.5000  0.5000 )  
               a(3) = ( -0.5000  0.5000  0.0000 )  

     reciprocal axes: (cart. coord. in units 2 pi/a_0)
               b(1) = ( -1.0000 -1.0000  1.0000 )  
               b(2) = (  1.0000  1.0000  1.0000 )  
               b(3) = ( -1.0000  1.0000 -1.0000 )  


     Atoms inside the unit cell: 

   Cartesian axes

     site n.  atom      mass           positions (a_0 units)
        1        Pb 207.2175   tau( 1) = (    0.00000    0.00000    0.00000  )

     49 Sym.Ops. (with q -> -q+G )


     G cutoff =  522.4094  (  12387 G-vectors)     FFT grid: ( 36, 36, 36)
     number of k points=   27  gaussian broad. (Ry)=  0.0200     ngauss =   1
                       cart. coord. in units 2pi/a_0
        k(    1) = (   0.0000000   0.0000000   0.0000000), wk =   0.0370370
        k(    2) = (  -0.3333333   0.3333333  -0.3333333), wk =   0.0370370
        k(    3) = (  -0.6666667   0.6666667  -0.6666667), wk =   0.0370370
        k(    4) = (   0.3333333   0.3333333   0.3333333), wk =   0.0370370
        k(    5) = (   0.0000000   0.6666667   0.0000000), wk =   0.0370370
        k(    6) = (  -0.3333333   1.0000000  -0.3333333), wk =   0.0370370
        k(    7) = (   0.6666667   0.6666667   0.6666667), wk =   0.0370370
        k(    8) = (   0.3333333   1.0000000   0.3333333), wk =   0.0370370
        k(    9) = (   0.0000000   1.3333333   0.0000000), wk =   0.0370370
        k(   10) = (  -0.3333333  -0.3333333   0.3333333), wk =   0.0370370
        k(   11) = (  -0.6666667   0.0000000   0.0000000), wk =   0.0370370
        k(   12) = (  -1.0000000   0.3333333  -0.3333333), wk =   0.0370370
        k(   13) = (   0.0000000   0.0000000   0.6666667), wk =   0.0370370
        k(   14) = (  -0.3333333   0.3333333   0.3333333), wk =   0.0370370
        k(   15) = (  -0.6666667   0.6666667  -0.0000000), wk =   0.0370370
        k(   16) = (   0.3333333   0.3333333   1.0000000), wk =   0.0370370
        k(   17) = (   0.0000000   0.6666667   0.6666667), wk =   0.0370370
        k(   18) = (  -0.3333333   1.0000000   0.3333333), wk =   0.0370370
        k(   19) = (  -0.6666667  -0.6666667   0.6666667), wk =   0.0370370
        k(   20) = (  -1.0000000  -0.3333333   0.3333333), wk =   0.0370370
        k(   21) = (  -1.3333333   0.0000000   0.0000000), wk =   0.0370370
        k(   22) = (  -0.3333333  -0.3333333   1.0000000), wk =   0.0370370
        k(   23) = (  -0.6666667  -0.0000000   0.6666667), wk =   0.0370370
        k(   24) = (  -1.0000000   0.3333333   0.3333333), wk =   0.0370370
        k(   25) = (   0.0000000   0.0000000   1.3333333), wk =   0.0370370
        k(   26) = (  -0.3333333   0.3333333   1.0000000), wk =   0.0370370
        k(   27) = (  -0.6666667   0.6666667   0.6666667), wk =   0.0370370

     PseudoPot. # 1 for Pb read from file:
     ../../pp/pb_s.UPF
     MD5 check sum: 7774f596943a2055f0d8d19eea6f2ae8
     Pseudo is Norm-conserving, Zval = 14.0
     Generated using "atomic" code by A. Dal Corso  (Quantum ESPRESSO distribution)
     Using radial grid of 1281 points,  4 beta functions with: 
                l(1) =   2
                l(2) =   2
                l(3) =   1
                l(4) =   1
     EPW          :     0.41s CPU         0.41s WALL

     EPW          :     0.74s CPU         0.74s WALL

     No wavefunction gauge setting applied
     -------------------------------------------------------------------
     Wannierization on  3 x  3 x  3 electronic grid
     -------------------------------------------------------------------

     Spin CASE ( non-collinear )

     Initializing Wannier90


     Initial Wannier projections

     (   0.00000   0.00000   0.00000) :  l =  -3 mr =   1
     (   0.00000   0.00000   0.00000) :  l =  -3 mr =   1
     (   0.00000   0.00000   0.00000) :  l =  -3 mr =   2
     (   0.00000   0.00000   0.00000) :  l =  -3 mr =   2

      - Number of bands is ( 22)
      - Number of wannier functions is (  8)
      - All guiding functions are given 
      - All neighbours are found 

     AMN
      k points =    27 in    4 pools
            1 of    7 on ionode
            2 of    7 on ionode
            3 of    7 on ionode
            4 of    7 on ionode
            5 of    7 on ionode
            6 of    7 on ionode
            7 of    7 on ionode

     AMN calculated

     MMN
      k points =    27 in    4 pools
            1 of    7 on ionode
            2 of    7 on ionode
            3 of    7 on ionode
            4 of    7 on ionode
            5 of    7 on ionode
            6 of    7 on ionode
            7 of    7 on ionode
     MMN calculated

     Running Wannier90

     Wannier Function centers (cartesian, alat) and spreads (ang):

     (  -0.08272   0.08272   0.08272) :   1.60664
     (   0.08272  -0.08272   0.08272) :   1.60664
     (   0.08272   0.08272  -0.08272) :   1.60665
     (  -0.08272  -0.08272  -0.08272) :   1.60663
     (  -0.08272   0.08272   0.08272) :   1.60664
     (   0.08272  -0.08272   0.08272) :   1.60664
     (  -0.08272  -0.08272  -0.08272) :   1.60663
     (   0.08272   0.08272  -0.08272) :   1.60665

     -------------------------------------------------------------------
     WANNIER      :      9.77s CPU      9.80s WALL (       1 calls)
     -------------------------------------------------------------------

     Dipole matrix elements calculated


     Calculating kmap and kgmap
     Progress  kmap: ###########################
     Progress kgmap: ########################################
     kmaps        :      3.35s CPU      3.36s WALL (       1 calls)
     Symmetries of bravais lattice:  48
     Symmetries of crystal:          48


     ===================================================================
     irreducible q point #    1
     ===================================================================

     Symmetries of small group of q: 48
          in addition sym. q -> -q+G:

     Number of q in the star =    1
     List of q in the star:
          1   0.000000000   0.000000000   0.000000000
        Imposing acoustic sum rule on the dynamical matrix

        q(    1 ) = (   0.0000000   0.0000000   0.0000000 )


     ===================================================================
     irreducible q point #    2
     ===================================================================

     Symmetries of small group of q:  6

     Number of q in the star =    8
     List of q in the star:
          1  -0.333333333   0.333333333  -0.333333333
          2   0.333333333   0.333333333  -0.333333333
          3   0.333333333   0.333333333   0.333333333
          4  -0.333333333   0.333333333   0.333333333
          5   0.333333333  -0.333333333   0.333333333
          6  -0.333333333  -0.333333333  -0.333333333
          7   0.333333333  -0.333333333  -0.333333333
          8  -0.333333333  -0.333333333   0.333333333

        q(    2 ) = (  -0.3333333   0.3333333  -0.3333333 )
        q(    3 ) = (   0.3333333   0.3333333  -0.3333333 )
        q(    4 ) = (   0.3333333   0.3333333   0.3333333 )
        q(    5 ) = (  -0.3333333   0.3333333   0.3333333 )
        q(    6 ) = (   0.3333333  -0.3333333   0.3333333 )
        q(    7 ) = (  -0.3333333  -0.3333333  -0.3333333 )
        q(    8 ) = (   0.3333333  -0.3333333  -0.3333333 )
        q(    9 ) = (  -0.3333333  -0.3333333   0.3333333 )


     ===================================================================
     irreducible q point #    3
     ===================================================================

     Symmetries of small group of q:  8

     Number of q in the star =    6
     List of q in the star:
          1   0.000000000   0.666666667   0.000000000
          2  -0.666666667   0.000000000   0.000000000
          3   0.000000000  -0.666666667   0.000000000
          4   0.000000000   0.000000000   0.666666667
          5   0.000000000   0.000000000  -0.666666667
          6   0.666666667   0.000000000   0.000000000

        q(   10 ) = (   0.0000000   0.6666667   0.0000000 )
        q(   11 ) = (  -0.6666667   0.0000000   0.0000000 )
        q(   12 ) = (   0.0000000  -0.6666667   0.0000000 )
        q(   13 ) = (   0.0000000   0.0000000   0.6666667 )
        q(   14 ) = (   0.0000000   0.0000000  -0.6666667 )
        q(   15 ) = (   0.6666667   0.0000000   0.0000000 )


     ===================================================================
     irreducible q point #    4
     ===================================================================

     Symmetries of small group of q:  4

     Number of q in the star =   12
     List of q in the star:
          1   0.666666667   0.000000000   0.666666667
          2   0.666666667   0.000000000  -0.666666667
          3  -0.666666667   0.000000000  -0.666666667
          4  -0.666666667   0.000000000   0.666666667
          5   0.000000000  -0.666666667   0.666666667
          6  -0.666666667   0.666666667   0.000000000
          7  -0.666666667  -0.666666667   0.000000000
          8   0.666666667   0.666666667   0.000000000
          9   0.666666667  -0.666666667   0.000000000
         10   0.000000000   0.666666667   0.666666667
         11   0.000000000   0.666666667  -0.666666667
         12   0.000000000  -0.666666667  -0.666666667

        q(   16 ) = (   0.6666667   0.0000000   0.6666667 )
        q(   17 ) = (   0.6666667   0.0000000  -0.6666667 )
        q(   18 ) = (  -0.6666667   0.0000000  -0.6666667 )
        q(   19 ) = (  -0.6666667   0.0000000   0.6666667 )
        q(   20 ) = (   0.0000000  -0.6666667   0.6666667 )
        q(   21 ) = (  -0.6666667   0.6666667   0.0000000 )
        q(   22 ) = (  -0.6666667  -0.6666667   0.0000000 )
        q(   23 ) = (   0.6666667   0.6666667   0.0000000 )
        q(   24 ) = (   0.6666667  -0.6666667   0.0000000 )
        q(   25 ) = (   0.0000000   0.6666667   0.6666667 )
        q(   26 ) = (   0.0000000   0.6666667  -0.6666667 )
        q(   27 ) = (   0.0000000  -0.6666667  -0.6666667 )

     Writing epmatq on .epb files


              band disentanglement is used:  nbndsub =    8

     Writing Hamiltonian, Dynamical matrix and EP vertex in Wann rep to file


     Reading Hamiltonian, Dynamical matrix and EP vertex in Wann rep from file


     Finished reading Wann rep data from file

     Using uniform q-mesh:    6   6   6
     Size of q point mesh for interpolation:        216
     Using uniform k-mesh:    6   6   6
     Size of k point mesh for interpolation:        432
     Max number of k points per pool:              108

     Fermi energy coarse grid =  10.121993 eV

     Skipping the first   10 bands:

     The Fermi level will be determined with   4.00000 electrons

     Fermi energy is calculated from the fine k-mesh: Ef =  11.669395 eV

     Warning: check if difference with Fermi level fine grid makes sense

     ===================================================================

              ibndmin =     3  ebndmin =     0.495
              ibndmax =     8  ebndmax =     1.265


     Number of ep-matrix elements per pool :         5832 ~=   45.56 Kb (@ 8 bytes/ DP)

     ===================================================================
     Phonon (Imaginary) Self-Energy in the Migdal Approximation
     ===================================================================


     Fermi Surface thickness =   6.000000 eV

     Golden Rule strictly enforced with T =   0.172347 eV
     Gaussian Broadening:   1.000000 eV, ngauss=   1
     DOS =  0.292656 states/spin/eV/Unit Cell at Ef= 11.669395 eV

     ismear =     1 iq =       1 coord.:   0.00000  0.00000  0.00000 wt:   0.00463
     -------------------------------------------------------------------
     lambda(   1 )=       0.000000   gamma=       0.000000 meV   omega=      0.0000 meV
     lambda(   2 )=       0.000000   gamma=       0.000000 meV   omega=      0.0000 meV
     lambda(   3 )=       0.000000   gamma=       0.000000 meV   omega=      0.0000 meV
     lambda( tot )=       0.000000
     -------------------------------------------------------------------


     Number of (k,k+q) pairs on the Fermi surface:      216 out of      216


     ===================================================================
     Electron (Imaginary) Self-Energy in the Migdal Approximation
     ===================================================================


     Fermi Surface thickness =   6.000000 eV

     Golden Rule strictly enforced with T =   0.172347 eV
     Gaussian Broadening:   1.000000 eV, ngauss=   1
     DOS =  0.292656 states/spin/eV/Unit Cell at Ef= 11.669395 eV
 

     ismear =     1 iq =       2 coord.:   0.00000  0.00000  0.16667 wt:   0.00463
     -------------------------------------------------------------------
     lambda(   1 )=       0.000000   gamma=       0.000000 meV   omega=     -1.1550 meV
     lambda(   2 )=       0.000000   gamma=       0.000000 meV   omega=     -1.1550 meV
     lambda(   3 )=       0.000000   gamma=       0.000000 meV   omega=      0.5943 meV
     lambda( tot )=       0.000000
     -------------------------------------------------------------------


     Number of (k,k+q) pairs on the Fermi surface:      216 out of      216


     ismear =     1 iq =       3 coord.:   0.00000  0.00000  0.33333 wt:   0.00463
     -------------------------------------------------------------------
     lambda(   1 )=       0.319417   gamma=       0.001709 meV   omega=      2.4121 meV
     lambda(   2 )=       0.320150   gamma=       0.001713 meV   omega=      2.4121 meV
     lambda(   3 )=       0.911295   gamma=       0.009281 meV   omega=      3.3283 meV
     lambda( tot )=       1.550862
     -------------------------------------------------------------------


     Number of (k,k+q) pairs on the Fermi surface:      216 out of      216


     ismear =     1 iq =       4 coord.:   0.00000  0.00000  0.50000 wt:   0.00463
     -------------------------------------------------------------------
     lambda(   1 )=      -0.218173   gamma=      -0.002869 meV   omega=      3.7822 meV
     lambda(   2 )=      -0.287083   gamma=      -0.003776 meV   omega=      3.7822 meV
     lambda(   3 )=       0.203469   gamma=       0.004012 meV   omega=      4.6312 meV
     lambda( tot )=      -0.301788
     -------------------------------------------------------------------


     Number of (k,k+q) pairs on the Fermi surface:      216 out of      216


     ismear =     1 iq =       5 coord.:   0.00000  0.00000  0.66667 wt:   0.00463
     -------------------------------------------------------------------
     lambda(   1 )=       0.261310   gamma=       0.001398 meV   omega=      2.4121 meV
     lambda(   2 )=       0.255675   gamma=       0.001368 meV   omega=      2.4121 meV
     lambda(   3 )=       0.864581   gamma=       0.008805 meV   omega=      3.3283 meV
     lambda( tot )=       1.381566
     -------------------------------------------------------------------


     Number of (k,k+q) pairs on the Fermi surface:      216 out of      216


     ismear =     1 iq =       6 coord.:   0.00000  0.00000  0.83333 wt:   0.00463
     -------------------------------------------------------------------
     lambda(   1 )=       0.000000   gamma=       0.000000 meV   omega=     -1.1550 meV
     lambda(   2 )=       0.000000   gamma=       0.000000 meV   omega=     -1.1550 meV
     lambda(   3 )=       0.000000   gamma=       0.000000 meV   omega=      0.5943 meV
     lambda( tot )=       0.000000
     -------------------------------------------------------------------


     Number of (k,k+q) pairs on the Fermi surface:      216 out of      216


     ismear =     1 iq =       7 coord.:   0.00000  0.16667  0.00000 wt:   0.00463
     -------------------------------------------------------------------
     lambda(   1 )=       0.000000   gamma=       0.000000 meV   omega=     -1.1550 meV
     lambda(   2 )=       0.000000   gamma=       0.000000 meV   omega=     -1.1550 meV
     lambda(   3 )=       0.000000   gamma=       0.000000 meV   omega=      0.5943 meV
     lambda( tot )=       0.000000
     -------------------------------------------------------------------


     Number of (k,k+q) pairs on the Fermi surface:      216 out of      216


     ismear =     1 iq =       8 coord.:   0.00000  0.16667  0.16667 wt:   0.00463
     -------------------------------------------------------------------
     lambda(   1 )=       0.000000   gamma=       0.000000 meV   omega=     -3.2765 meV
     lambda(   2 )=       0.000000   gamma=       0.000000 meV   omega=     -3.2765 meV
     lambda(   3 )=       1.098464   gamma=       0.016670 meV   omega=      4.0627 meV
     lambda( tot )=       1.098464
     -------------------------------------------------------------------


     Number of (k,k+q) pairs on the Fermi surface:      216 out of      216


     ismear =     1 iq =       9 coord.:   0.00000  0.16667  0.33333 wt:   0.00463
     -------------------------------------------------------------------
     lambda(   1 )=       0.000000   gamma=       0.000000 meV   omega=     -3.0878 meV
     lambda(   2 )=       0.000000   gamma=       0.000000 meV   omega=     -2.9013 meV
     lambda(   3 )=       0.389606   gamma=       0.010777 meV   omega=      5.4851 meV
     lambda( tot )=       0.389606
     -------------------------------------------------------------------


     Number of (k,k+q) pairs on the Fermi surface:      216 out of      216


     ismear =     1 iq =      10 coord.:   0.00000  0.16667  0.50000 wt:   0.00463
     -------------------------------------------------------------------
     lambda(   1 )=      -1.960557   gamma=      -0.013569 meV   omega=      2.7436 meV
     lambda(   2 )=      -1.410299   gamma=      -0.014254 meV   omega=      3.3156 meV
     lambda(   3 )=      -0.324619   gamma=      -0.009890 meV   omega=      5.7564 meV
     lambda( tot )=      -3.695474
     -------------------------------------------------------------------


     Number of (k,k+q) pairs on the Fermi surface:      216 out of      216


     ismear =     1 iq =      11 coord.:   0.00000  0.16667  0.66667 wt:   0.00463
     -------------------------------------------------------------------
     lambda(   1 )=       0.152489   gamma=       0.001660 meV   omega=      3.4410 meV
     lambda(   2 )=       2.442313   gamma=       0.030466 meV   omega=      3.6835 meV
     lambda(   3 )=      -0.364066   gamma=      -0.006364 meV   omega=      4.3604 meV
     lambda( tot )=       2.230736
     -------------------------------------------------------------------


     Number of (k,k+q) pairs on the Fermi surface:      216 out of      216


     ismear =     1 iq =      12 coord.:   0.00000  0.16667  0.83333 wt:   0.00463
     -------------------------------------------------------------------
     lambda(   1 )=       0.000000   gamma=       0.000000 meV   omega=     -2.7995 meV
     lambda(   2 )=       1.987302   gamma=       0.010794 meV   omega=      2.4305 meV
     lambda(   3 )=      -0.678909   gamma=      -0.005917 meV   omega=      3.0788 meV
     lambda( tot )=       1.308393
     -------------------------------------------------------------------


     Number of (k,k+q) pairs on the Fermi surface:      216 out of      216


     ismear =     1 iq =      13 coord.:   0.00000  0.33333  0.00000 wt:   0.00463
     -------------------------------------------------------------------
     lambda(   1 )=       0.248988   gamma=       0.001332 meV   omega=      2.4121 meV
     lambda(   2 )=       0.268192   gamma=       0.001435 meV   omega=      2.4121 meV
     lambda(   3 )=       0.857076   gamma=       0.008729 meV   omega=      3.3283 meV
     lambda( tot )=       1.374256
     -------------------------------------------------------------------


     Number of (k,k+q) pairs on the Fermi surface:      216 out of      216


     ismear =     1 iq =      14 coord.:   0.00000  0.33333  0.16667 wt:   0.00463
     -------------------------------------------------------------------
     lambda(   1 )=       0.000000   gamma=       0.000000 meV   omega=     -3.0878 meV
     lambda(   2 )=       0.000000   gamma=       0.000000 meV   omega=     -2.9013 meV
     lambda(   3 )=       0.080939   gamma=       0.002239 meV   omega=      5.4851 meV
     lambda( tot )=       0.080939
     -------------------------------------------------------------------


     Number of (k,k+q) pairs on the Fermi surface:      216 out of      216


     ismear =     1 iq =      15 coord.:   0.00000  0.33333  0.33333 wt:   0.00463
     -------------------------------------------------------------------
     lambda(   1 )=       0.000000   gamma=       0.000000 meV   omega=     -4.4985 meV
     lambda(   2 )=       0.000000   gamma=       0.000000 meV   omega=     -4.4985 meV
     lambda(   3 )=       0.206020   gamma=       0.010200 meV   omega=      7.3381 meV
     lambda( tot )=       0.206020
     -------------------------------------------------------------------


     Number of (k,k+q) pairs on the Fermi surface:      216 out of      216


     ismear =     1 iq =      16 coord.:   0.00000  0.33333  0.50000 wt:   0.00463
     -------------------------------------------------------------------
     lambda(   1 )=       0.000000   gamma=       0.000000 meV   omega=     -3.0209 meV
     lambda(   2 )=       0.000000   gamma=       0.000000 meV   omega=     -2.7837 meV
     lambda(   3 )=       0.337898   gamma=       0.019212 meV   omega=      7.8640 meV
     lambda( tot )=       0.337898
     -------------------------------------------------------------------


     Number of (k,k+q) pairs on the Fermi surface:      216 out of      216


     ismear =     1 iq =      17 coord.:   0.00000  0.33333  0.66667 wt:   0.00463
     -------------------------------------------------------------------
     lambda(   1 )=       0.572003   gamma=       0.004904 meV   omega=      3.0538 meV
     lambda(   2 )=       0.146111   gamma=       0.001803 meV   omega=      3.6637 meV
     lambda(   3 )=       0.146028   gamma=       0.005731 meV   omega=      6.5334 meV
     lambda( tot )=       0.864142
     -------------------------------------------------------------------


     Number of (k,k+q) pairs on the Fermi surface:      216 out of      216


     ismear =     1 iq =      18 coord.:   0.00000  0.33333  0.83333 wt:   0.00463
     -------------------------------------------------------------------
     lambda(   1 )=       0.624918   gamma=       0.006803 meV   omega=      3.4410 meV
     lambda(   2 )=       2.372870   gamma=       0.029600 meV   omega=      3.6835 meV
     lambda(   3 )=      -0.355273   gamma=      -0.006210 meV   omega=      4.3604 meV
     lambda( tot )=       2.642515
     -------------------------------------------------------------------


     Number of (k,k+q) pairs on the Fermi surface:      216 out of      216


     ismear =     1 iq =      19 coord.:   0.00000  0.50000  0.00000 wt:   0.00463
     -------------------------------------------------------------------
     lambda(   1 )=      -0.396090   gamma=      -0.005209 meV   omega=      3.7822 meV
     lambda(   2 )=      -0.404701   gamma=      -0.005323 meV   omega=      3.7822 meV
     lambda(   3 )=      -0.755320   gamma=      -0.014895 meV   omega=      4.6312 meV
     lambda( tot )=      -1.556111
     -------------------------------------------------------------------


     Number of (k,k+q) pairs on the Fermi surface:      216 out of      216


     ismear =     1 iq =      20 coord.:   0.00000  0.50000  0.16667 wt:   0.00463
     -------------------------------------------------------------------
     lambda(   1 )=      -2.053758   gamma=      -0.014214 meV   omega=      2.7436 meV
     lambda(   2 )=      -2.435198   gamma=      -0.024613 meV   omega=      3.3156 meV
     lambda(   3 )=      -0.355711   gamma=      -0.010837 meV   omega=      5.7564 meV
     lambda( tot )=      -4.844668
     -------------------------------------------------------------------


     Number of (k,k+q) pairs on the Fermi surface:      216 out of      216


     ismear =     1 iq =      21 coord.:   0.00000  0.50000  0.33333 wt:   0.00463
     -------------------------------------------------------------------
     lambda(   1 )=       0.000000   gamma=       0.000000 meV   omega=     -3.0209 meV
     lambda(   2 )=       0.000000   gamma=       0.000000 meV   omega=     -2.7837 meV
     lambda(   3 )=       0.186186   gamma=       0.010586 meV   omega=      7.8640 meV
     lambda( tot )=       0.186186
     -------------------------------------------------------------------


     Number of (k,k+q) pairs on the Fermi surface:      216 out of      216


     ismear =     1 iq =      22 coord.:   0.00000  0.50000  0.50000 wt:   0.00463
     -------------------------------------------------------------------
     lambda(   1 )=       0.000000   gamma=       0.000000 meV   omega=     -4.3590 meV
     lambda(   2 )=       0.000000   gamma=       0.000000 meV   omega=     -4.3590 meV
     lambda(   3 )=       0.077615   gamma=       0.005329 meV   omega=      8.6419 meV
     lambda( tot )=       0.077615
     -------------------------------------------------------------------


     Number of (k,k+q) pairs on the Fermi surface:      216 out of      216


     ismear =     1 iq =      23 coord.:   0.00000  0.50000  0.66667 wt:   0.00463
     -------------------------------------------------------------------
     lambda(   1 )=       0.000000   gamma=       0.000000 meV   omega=     -3.0209 meV
     lambda(   2 )=       0.000000   gamma=       0.000000 meV   omega=     -2.7837 meV
     lambda(   3 )=       0.329282   gamma=       0.018723 meV   omega=      7.8640 meV
     lambda( tot )=       0.329282
     -------------------------------------------------------------------


     Number of (k,k+q) pairs on the Fermi surface:      216 out of      216


     ismear =     1 iq =      24 coord.:   0.00000  0.50000  0.83333 wt:   0.00463
     -------------------------------------------------------------------
     lambda(   1 )=      -2.110676   gamma=      -0.014608 meV   omega=      2.7436 meV
     lambda(   2 )=      -2.977723   gamma=      -0.030097 meV   omega=      3.3156 meV
     lambda(   3 )=      -0.434206   gamma=      -0.013228 meV   omega=      5.7564 meV
     lambda( tot )=      -5.522605
     -------------------------------------------------------------------


     Number of (k,k+q) pairs on the Fermi surface:      216 out of      216


     ismear =     1 iq =      25 coord.:   0.00000  0.66667  0.00000 wt:   0.00463
     -------------------------------------------------------------------
     lambda(   1 )=       0.248861   gamma=       0.001331 meV   omega=      2.4121 meV
     lambda(   2 )=       0.268689   gamma=       0.001437 meV   omega=      2.4121 meV
     lambda(   3 )=       0.856828   gamma=       0.008726 meV   omega=      3.3283 meV
     lambda( tot )=       1.374378
     -------------------------------------------------------------------


     Number of (k,k+q) pairs on the Fermi surface:      216 out of      216


     ismear =     1 iq =      26 coord.:   0.00000  0.66667  0.16667 wt:   0.00463
     -------------------------------------------------------------------
     lambda(   1 )=      -0.086088   gamma=      -0.000937 meV   omega=      3.4410 meV
     lambda(   2 )=       1.739111   gamma=       0.021694 meV   omega=      3.6835 meV
     lambda(   3 )=      -0.318183   gamma=      -0.005562 meV   omega=      4.3604 meV
     lambda( tot )=       1.334840
     -------------------------------------------------------------------


     Number of (k,k+q) pairs on the Fermi surface:      216 out of      216


     ismear =     1 iq =      27 coord.:   0.00000  0.66667  0.33333 wt:   0.00463
     -------------------------------------------------------------------
     lambda(   1 )=       0.506383   gamma=       0.004342 meV   omega=      3.0538 meV
     lambda(   2 )=       0.135249   gamma=       0.001669 meV   omega=      3.6637 meV
     lambda(   3 )=       0.128835   gamma=       0.005056 meV   omega=      6.5334 meV
     lambda( tot )=       0.770468
     -------------------------------------------------------------------


     Number of (k,k+q) pairs on the Fermi surface:      216 out of      216


     ismear =     1 iq =      28 coord.:   0.00000  0.66667  0.50000 wt:   0.00463
     -------------------------------------------------------------------
     lambda(   1 )=       0.000000   gamma=       0.000000 meV   omega=     -3.0209 meV
     lambda(   2 )=       0.000000   gamma=       0.000000 meV   omega=     -2.7837 meV
     lambda(   3 )=       0.154210   gamma=       0.008768 meV   omega=      7.8640 meV
     lambda( tot )=       0.154210
     -------------------------------------------------------------------


     Number of (k,k+q) pairs on the Fermi surface:      216 out of      216


     ismear =     1 iq =      29 coord.:   0.00000  0.66667  0.66667 wt:   0.00463
     -------------------------------------------------------------------
     lambda(   1 )=       0.000000   gamma=       0.000000 meV   omega=     -4.4985 meV
     lambda(   2 )=       0.000000   gamma=       0.000000 meV   omega=     -4.4985 meV
     lambda(   3 )=       0.189488   gamma=       0.009381 meV   omega=      7.3381 meV
     lambda( tot )=       0.189488
     -------------------------------------------------------------------


     Number of (k,k+q) pairs on the Fermi surface:      216 out of      216


     ismear =     1 iq =      30 coord.:   0.00000  0.66667  0.83333 wt:   0.00463
     -------------------------------------------------------------------
     lambda(   1 )=       0.000000   gamma=       0.000000 meV   omega=     -3.0878 meV
     lambda(   2 )=       0.000000   gamma=       0.000000 meV   omega=     -2.9013 meV
     lambda(   3 )=       0.191548   gamma=       0.005299 meV   omega=      5.4851 meV
     lambda( tot )=       0.191548
     -------------------------------------------------------------------


     Number of (k,k+q) pairs on the Fermi surface:      216 out of      216


     ismear =     1 iq =      31 coord.:   0.00000  0.83333  0.00000 wt:   0.00463
     -------------------------------------------------------------------
     lambda(   1 )=       0.000000   gamma=       0.000000 meV   omega=     -1.1550 meV
     lambda(   2 )=       0.000000   gamma=       0.000000 meV   omega=     -1.1550 meV
     lambda(   3 )=       0.000000   gamma=       0.000000 meV   omega=      0.5943 meV
     lambda( tot )=       0.000000
     -------------------------------------------------------------------


     Number of (k,k+q) pairs on the Fermi surface:      216 out of      216


     ismear =     1 iq =      32 coord.:   0.00000  0.83333  0.16667 wt:   0.00463
     -------------------------------------------------------------------
     lambda(   1 )=       0.000000   gamma=       0.000000 meV   omega=     -2.7995 meV
     lambda(   2 )=       4.068976   gamma=       0.022100 meV   omega=      2.4305 meV
     lambda(   3 )=      -0.166621   gamma=      -0.001452 meV   omega=      3.0788 meV
     lambda( tot )=       3.902355
     -------------------------------------------------------------------


     Number of (k,k+q) pairs on the Fermi surface:      216 out of      216


     ismear =     1 iq =      33 coord.:   0.00000  0.83333  0.33333 wt:   0.00463
     -------------------------------------------------------------------
     lambda(   1 )=       0.404307   gamma=       0.004401 meV   omega=      3.4410 meV
     lambda(   2 )=       1.754224   gamma=       0.021883 meV   omega=      3.6835 meV
     lambda(   3 )=      -0.162968   gamma=      -0.002849 meV   omega=      4.3604 meV
     lambda( tot )=       1.995563
     -------------------------------------------------------------------


     Number of (k,k+q) pairs on the Fermi surface:      216 out of      216


     ismear =     1 iq =      34 coord.:   0.00000  0.83333  0.50000 wt:   0.00463
     -------------------------------------------------------------------
     lambda(   1 )=      -2.724318   gamma=      -0.018855 meV   omega=      2.7436 meV
     lambda(   2 )=      -2.093550   gamma=      -0.021160 meV   omega=      3.3156 meV
     lambda(   3 )=      -0.458820   gamma=      -0.013978 meV   omega=      5.7564 meV
     lambda( tot )=      -5.276687
     -------------------------------------------------------------------


     Number of (k,k+q) pairs on the Fermi surface:      216 out of      216


     ismear =     1 iq =      35 coord.:   0.00000  0.83333  0.66667 wt:   0.00463
     -------------------------------------------------------------------
     lambda(   1 )=       0.000000   gamma=       0.000000 meV   omega=     -3.0878 meV
     lambda(   2 )=       0.000000   gamma=       0.000000 meV   omega=     -2.9013 meV
     lambda(   3 )=      -0.046874   gamma=      -0.001297 meV   omega=      5.4851 meV
     lambda( tot )=      -0.046874
     -------------------------------------------------------------------


     Number of (k,k+q) pairs on the Fermi surface:      216 out of      216


     ismear =     1 iq =      36 coord.:   0.00000  0.83333  0.83333 wt:   0.00463
     -------------------------------------------------------------------
     lambda(   1 )=       0.000000   gamma=       0.000000 meV   omega=     -3.2765 meV
     lambda(   2 )=       0.000000   gamma=       0.000000 meV   omega=     -3.2765 meV
     lambda(   3 )=       0.456817   gamma=       0.006932 meV   omega=      4.0627 meV
     lambda( tot )=       0.456817
     -------------------------------------------------------------------


     Number of (k,k+q) pairs on the Fermi surface:      216 out of      216


     ismear =     1 iq =      37 coord.:   0.16667  0.00000  0.00000 wt:   0.00463
     -------------------------------------------------------------------
     lambda(   1 )=       0.000000   gamma=       0.000000 meV   omega=     -1.1550 meV
     lambda(   2 )=       0.000000   gamma=       0.000000 meV   omega=     -1.1550 meV
     lambda(   3 )=       0.000000   gamma=       0.000000 meV   omega=      0.5943 meV
     lambda( tot )=       0.000000
     -------------------------------------------------------------------


     Number of (k,k+q) pairs on the Fermi surface:      216 out of      216


     ismear =     1 iq =      38 coord.:   0.16667  0.00000  0.16667 wt:   0.00463
     -------------------------------------------------------------------
     lambda(   1 )=       0.000000   gamma=       0.000000 meV   omega=     -3.2765 meV
     lambda(   2 )=       0.000000   gamma=       0.000000 meV   omega=     -3.2765 meV
     lambda(   3 )=       1.108154   gamma=       0.016817 meV   omega=      4.0627 meV
     lambda( tot )=       1.108154
     -------------------------------------------------------------------


     Number of (k,k+q) pairs on the Fermi surface:      216 out of      216


     ismear =     1 iq =      39 coord.:   0.16667  0.00000  0.33333 wt:   0.00463
     -------------------------------------------------------------------
     lambda(   1 )=       0.000000   gamma=       0.000000 meV   omega=     -3.0878 meV
     lambda(   2 )=       0.000000   gamma=       0.000000 meV   omega=     -2.9013 meV
     lambda(   3 )=       0.141106   gamma=       0.003903 meV   omega=      5.4851 meV
     lambda( tot )=       0.141106
     -------------------------------------------------------------------


     Number of (k,k+q) pairs on the Fermi surface:      216 out of      216


     ismear =     1 iq =      40 coord.:   0.16667  0.00000  0.50000 wt:   0.00463
     -------------------------------------------------------------------
     lambda(   1 )=      -1.798635   gamma=      -0.012448 meV   omega=      2.7436 meV
     lambda(   2 )=      -2.814424   gamma=      -0.028446 meV   omega=      3.3156 meV
     lambda(   3 )=      -0.377092   gamma=      -0.011488 meV   omega=      5.7564 meV
     lambda( tot )=      -4.990152
     -------------------------------------------------------------------


     Number of (k,k+q) pairs on the Fermi surface:      216 out of      216


     ismear =     1 iq =      41 coord.:   0.16667  0.00000  0.66667 wt:   0.00463
     -------------------------------------------------------------------
     lambda(   1 )=       0.569733   gamma=       0.006202 meV   omega=      3.4410 meV
     lambda(   2 )=       2.796595   gamma=       0.034886 meV   omega=      3.6835 meV
     lambda(   3 )=       0.252754   gamma=       0.004418 meV   omega=      4.3604 meV
     lambda( tot )=       3.619083
     -------------------------------------------------------------------


     Number of (k,k+q) pairs on the Fermi surface:      216 out of      216


     ismear =     1 iq =      42 coord.:   0.16667  0.00000  0.83333 wt:   0.00463
     -------------------------------------------------------------------
     lambda(   1 )=       0.000000   gamma=       0.000000 meV   omega=     -2.7995 meV
     lambda(   2 )=       2.811889   gamma=       0.015272 meV   omega=      2.4305 meV
     lambda(   3 )=      -0.702554   gamma=      -0.006123 meV   omega=      3.0788 meV
     lambda( tot )=       2.109335
     -------------------------------------------------------------------


     Number of (k,k+q) pairs on the Fermi surface:      216 out of      216


     ismear =     1 iq =      43 coord.:   0.16667  0.16667  0.00000 wt:   0.00463
     -------------------------------------------------------------------
     lambda(   1 )=       0.000000   gamma=       0.000000 meV   omega=     -3.2765 meV
     lambda(   2 )=       0.000000   gamma=       0.000000 meV   omega=     -3.2765 meV
     lambda(   3 )=       1.363349   gamma=       0.020689 meV   omega=      4.0627 meV
     lambda( tot )=       1.363349
     -------------------------------------------------------------------


     Number of (k,k+q) pairs on the Fermi surface:      216 out of      216


     ismear =     1 iq =      44 coord.:   0.16667  0.16667  0.16667 wt:   0.00463
     -------------------------------------------------------------------
     lambda(   1 )=       0.000000   gamma=       0.000000 meV   omega=     -1.1550 meV
     lambda(   2 )=       0.000000   gamma=       0.000000 meV   omega=     -1.1550 meV
     lambda(   3 )=       0.000000   gamma=       0.000000 meV   omega=      0.5943 meV
     lambda( tot )=       0.000000
     -------------------------------------------------------------------


     Number of (k,k+q) pairs on the Fermi surface:      216 out of      216


     ismear =     1 iq =      45 coord.:   0.16667  0.16667  0.33333 wt:   0.00463
     -------------------------------------------------------------------
     lambda(   1 )=       0.000000   gamma=       0.000000 meV   omega=     -2.7995 meV
     lambda(   2 )=       3.494973   gamma=       0.018982 meV   omega=      2.4305 meV
     lambda(   3 )=      -0.010655   gamma=      -0.000093 meV   omega=      3.0788 meV
     lambda( tot )=       3.484317
     -------------------------------------------------------------------


     Number of (k,k+q) pairs on the Fermi surface:      216 out of      216


     ismear =     1 iq =      46 coord.:   0.16667  0.16667  0.50000 wt:   0.00463
     -------------------------------------------------------------------
     lambda(   1 )=      -0.130537   gamma=      -0.001421 meV   omega=      3.4410 meV
     lambda(   2 )=       1.557649   gamma=       0.019431 meV   omega=      3.6835 meV
     lambda(   3 )=      -0.495829   gamma=      -0.008667 meV   omega=      4.3604 meV
     lambda( tot )=       0.931282
     -------------------------------------------------------------------


     Number of (k,k+q) pairs on the Fermi surface:      216 out of      216


     ismear =     1 iq =      47 coord.:   0.16667  0.16667  0.66667 wt:   0.00463
     -------------------------------------------------------------------
     lambda(   1 )=      -1.932567   gamma=      -0.013375 meV   omega=      2.7436 meV
     lambda(   2 )=      -2.115584   gamma=      -0.021383 meV   omega=      3.3156 meV
     lambda(   3 )=      -0.544337   gamma=      -0.016583 meV   omega=      5.7564 meV
     lambda( tot )=      -4.592488
     -------------------------------------------------------------------


     Number of (k,k+q) pairs on the Fermi surface:      216 out of      216


     ismear =     1 iq =      48 coord.:   0.16667  0.16667  0.83333 wt:   0.00463
     -------------------------------------------------------------------
     lambda(   1 )=       0.000000   gamma=       0.000000 meV   omega=     -3.0878 meV
     lambda(   2 )=       0.000000   gamma=       0.000000 meV   omega=     -2.9013 meV
     lambda(   3 )=      -0.174168   gamma=      -0.004818 meV   omega=      5.4851 meV
     lambda( tot )=      -0.174168
     -------------------------------------------------------------------


     Number of (k,k+q) pairs on the Fermi surface:      216 out of      216


     ismear =     1 iq =      49 coord.:   0.16667  0.33333  0.00000 wt:   0.00463
     -------------------------------------------------------------------
     lambda(   1 )=       0.000000   gamma=       0.000000 meV   omega=     -3.0878 meV
     lambda(   2 )=       0.000000   gamma=       0.000000 meV   omega=     -2.9013 meV
     lambda(   3 )=      -0.178069   gamma=      -0.004926 meV   omega=      5.4851 meV
     lambda( tot )=      -0.178069
     -------------------------------------------------------------------


     Number of (k,k+q) pairs on the Fermi surface:      216 out of      216


     ismear =     1 iq =      50 coord.:   0.16667  0.33333  0.16667 wt:   0.00463
     -------------------------------------------------------------------
     lambda(   1 )=       0.000000   gamma=       0.000000 meV   omega=     -2.7995 meV
     lambda(   2 )=       2.870969   gamma=       0.015593 meV   omega=      2.4305 meV
     lambda(   3 )=      -0.535240   gamma=      -0.004665 meV   omega=      3.0788 meV
     lambda( tot )=       2.335729
     -------------------------------------------------------------------


     Number of (k,k+q) pairs on the Fermi surface:      216 out of      216


     ismear =     1 iq =      51 coord.:   0.16667  0.33333  0.33333 wt:   0.00463
     -------------------------------------------------------------------
     lambda(   1 )=       0.000000   gamma=       0.000000 meV   omega=     -3.0878 meV
     lambda(   2 )=       0.000000   gamma=       0.000000 meV   omega=     -2.9013 meV
     lambda(   3 )=       0.186315   gamma=       0.005154 meV   omega=      5.4851 meV
     lambda( tot )=       0.186315
     -------------------------------------------------------------------


     Number of (k,k+q) pairs on the Fermi surface:      216 out of      216


     ismear =     1 iq =      52 coord.:   0.16667  0.33333  0.50000 wt:   0.00463
     -------------------------------------------------------------------
     lambda(   1 )=       0.000000   gamma=       0.000000 meV   omega=     -2.1518 meV
     lambda(   2 )=      -8.831425   gamma=      -0.027107 meV   omega=      1.8272 meV
     lambda(   3 )=      -0.161884   gamma=      -0.006306 meV   omega=      6.5091 meV
     lambda( tot )=      -8.993309
     -------------------------------------------------------------------


     Number of (k,k+q) pairs on the Fermi surface:      216 out of      216


     ismear =     1 iq =      53 coord.:   0.16667  0.33333  0.66667 wt:   0.00463
     -------------------------------------------------------------------
     lambda(   1 )=    -215.368636   gamma=      -0.163936 meV   omega=      0.9099 meV
     lambda(   2 )=      -0.586735   gamma=      -0.017075 meV   omega=      5.6261 meV
     lambda(   3 )=       0.256680   gamma=       0.007777 meV   omega=      5.7405 meV
     lambda( tot )=    -215.698691
     -------------------------------------------------------------------


     Number of (k,k+q) pairs on the Fermi surface:      216 out of      216


     ismear =     1 iq =      54 coord.:   0.16667  0.33333  0.83333 wt:   0.00463
     -------------------------------------------------------------------
     lambda(   1 )=       0.000000   gamma=       0.000000 meV   omega=     -2.1518 meV
     lambda(   2 )=     -25.827626   gamma=      -0.079276 meV   omega=      1.8272 meV
     lambda(   3 )=      -0.306862   gamma=      -0.011953 meV   omega=      6.5091 meV
     lambda( tot )=     -26.134488
     -------------------------------------------------------------------


     Number of (k,k+q) pairs on the Fermi surface:      216 out of      216


     ismear =     1 iq =      55 coord.:   0.16667  0.50000  0.00000 wt:   0.00463
     -------------------------------------------------------------------
     lambda(   1 )=      -2.501686   gamma=      -0.017314 meV   omega=      2.7436 meV
     lambda(   2 )=      -2.630001   gamma=      -0.026582 meV   omega=      3.3156 meV
     lambda(   3 )=      -0.514510   gamma=      -0.015675 meV   omega=      5.7564 meV
     lambda( tot )=      -5.646196
     -------------------------------------------------------------------


     Number of (k,k+q) pairs on the Fermi surface:      216 out of      216


     ismear =     1 iq =      56 coord.:   0.16667  0.50000  0.16667 wt:   0.00463
     -------------------------------------------------------------------
     lambda(   1 )=       0.700200   gamma=       0.007623 meV   omega=      3.4410 meV
     lambda(   2 )=       2.316224   gamma=       0.028893 meV   omega=      3.6835 meV
     lambda(   3 )=      -0.061369   gamma=      -0.001073 meV   omega=      4.3604 meV
     lambda( tot )=       2.955056
     -------------------------------------------------------------------


     Number of (k,k+q) pairs on the Fermi surface:      216 out of      216


     ismear =     1 iq =      57 coord.:   0.16667  0.50000  0.33333 wt:   0.00463
     -------------------------------------------------------------------
     lambda(   1 )=       0.000000   gamma=       0.000000 meV   omega=     -2.1518 meV
     lambda(   2 )=     -14.668304   gamma=      -0.045023 meV   omega=      1.8272 meV
     lambda(   3 )=      -0.264956   gamma=      -0.010321 meV   omega=      6.5091 meV
     lambda( tot )=     -14.933259
     -------------------------------------------------------------------


     Number of (k,k+q) pairs on the Fermi surface:      216 out of      216


     ismear =     1 iq =      58 coord.:   0.16667  0.50000  0.50000 wt:   0.00463
     -------------------------------------------------------------------
     lambda(   1 )=       0.000000   gamma=       0.000000 meV   omega=     -3.0209 meV
     lambda(   2 )=       0.000000   gamma=       0.000000 meV   omega=     -2.7837 meV
     lambda(   3 )=       0.306776   gamma=       0.017443 meV   omega=      7.8640 meV
     lambda( tot )=       0.306776
     -------------------------------------------------------------------


     Number of (k,k+q) pairs on the Fermi surface:      216 out of      216


     ismear =     1 iq =      59 coord.:   0.16667  0.50000  0.66667 wt:   0.00463
     -------------------------------------------------------------------
     lambda(   1 )=       0.000000   gamma=       0.000000 meV   omega=     -2.8257 meV
     lambda(   2 )=      -2.607343   gamma=      -0.027847 meV   omega=      3.4083 meV
     lambda(   3 )=      -0.554112   gamma=      -0.029782 meV   omega=      7.6458 meV
     lambda( tot )=      -3.161455
     -------------------------------------------------------------------


     Number of (k,k+q) pairs on the Fermi surface:      216 out of      216


     ismear =     1 iq =      60 coord.:   0.16667  0.50000  0.83333 wt:   0.00463
     -------------------------------------------------------------------
     lambda(   1 )=    -202.123842   gamma=      -0.153854 meV   omega=      0.9099 meV
     lambda(   2 )=      -0.634073   gamma=      -0.018453 meV   omega=      5.6261 meV
     lambda(   3 )=       0.340181   gamma=       0.010307 meV   omega=      5.7405 meV
     lambda( tot )=    -202.417734
     -------------------------------------------------------------------


     Number of (k,k+q) pairs on the Fermi surface:      216 out of      216


     ismear =     1 iq =      61 coord.:   0.16667  0.66667  0.00000 wt:   0.00463
     -------------------------------------------------------------------
     lambda(   1 )=       0.399209   gamma=       0.004346 meV   omega=      3.4410 meV
     lambda(   2 )=       1.718317   gamma=       0.021435 meV   omega=      3.6835 meV
     lambda(   3 )=      -0.526727   gamma=      -0.009207 meV   omega=      4.3604 meV
     lambda( tot )=       1.590799
     -------------------------------------------------------------------


     Number of (k,k+q) pairs on the Fermi surface:      216 out of      216


     ismear =     1 iq =      62 coord.:   0.16667  0.66667  0.16667 wt:   0.00463
     -------------------------------------------------------------------
     lambda(   1 )=      -1.707733   gamma=      -0.011819 meV   omega=      2.7436 meV
     lambda(   2 )=      -2.305870   gamma=      -0.023306 meV   omega=      3.3156 meV
     lambda(   3 )=      -0.400004   gamma=      -0.012186 meV   omega=      5.7564 meV
     lambda( tot )=      -4.413607
     -------------------------------------------------------------------


     Number of (k,k+q) pairs on the Fermi surface:      216 out of      216


     ismear =     1 iq =      63 coord.:   0.16667  0.66667  0.33333 wt:   0.00463
     -------------------------------------------------------------------
     lambda(   1 )=    -196.287528   gamma=      -0.149412 meV   omega=      0.9099 meV
     lambda(   2 )=      -0.742430   gamma=      -0.021606 meV   omega=      5.6261 meV
     lambda(   3 )=       0.237797   gamma=       0.007205 meV   omega=      5.7405 meV
     lambda( tot )=    -196.792160
     -------------------------------------------------------------------


     Number of (k,k+q) pairs on the Fermi surface:      216 out of      216


     ismear =     1 iq =      64 coord.:   0.16667  0.66667  0.50000 wt:   0.00463
     -------------------------------------------------------------------
     lambda(   1 )=       0.000000   gamma=       0.000000 meV   omega=     -2.8257 meV
     lambda(   2 )=      -3.544526   gamma=      -0.037856 meV   omega=      3.4083 meV
     lambda(   3 )=      -0.463535   gamma=      -0.024914 meV   omega=      7.6458 meV
     lambda( tot )=      -4.008061
     -------------------------------------------------------------------


     Number of (k,k+q) pairs on the Fermi surface:      216 out of      216


     ismear =     1 iq =      65 coord.:   0.16667  0.66667  0.66667 wt:   0.00463
     -------------------------------------------------------------------
     lambda(   1 )=       0.000000   gamma=       0.000000 meV   omega=     -3.0209 meV
     lambda(   2 )=       0.000000   gamma=       0.000000 meV   omega=     -2.7837 meV
     lambda(   3 )=       0.256871   gamma=       0.014605 meV   omega=      7.8640 meV
     lambda( tot )=       0.256871
     -------------------------------------------------------------------


     Number of (k,k+q) pairs on the Fermi surface:      216 out of      216


     ismear =     1 iq =      66 coord.:   0.16667  0.66667  0.83333 wt:   0.00463
     -------------------------------------------------------------------
     lambda(   1 )=       0.000000   gamma=       0.000000 meV   omega=     -2.1518 meV
     lambda(   2 )=     -13.012772   gamma=      -0.039942 meV   omega=      1.8272 meV
     lambda(   3 )=      -0.173557   gamma=      -0.006761 meV   omega=      6.5091 meV
     lambda( tot )=     -13.186328
     -------------------------------------------------------------------


     Number of (k,k+q) pairs on the Fermi surface:      216 out of      216


     ismear =     1 iq =      67 coord.:   0.16667  0.83333  0.00000 wt:   0.00463
     -------------------------------------------------------------------
     lambda(   1 )=       0.000000   gamma=       0.000000 meV   omega=     -2.7995 meV
     lambda(   2 )=       4.656453   gamma=       0.025291 meV   omega=      2.4305 meV
     lambda(   3 )=      -0.281726   gamma=      -0.002455 meV   omega=      3.0788 meV
     lambda( tot )=       4.374727
     -------------------------------------------------------------------


     Number of (k,k+q) pairs on the Fermi surface:      216 out of      216


     ismear =     1 iq =      68 coord.:   0.16667  0.83333  0.16667 wt:   0.00463
     -------------------------------------------------------------------
     lambda(   1 )=       0.000000   gamma=       0.000000 meV   omega=     -3.0878 meV
     lambda(   2 )=       0.000000   gamma=       0.000000 meV   omega=     -2.9013 meV
     lambda(   3 )=       0.054683   gamma=       0.001513 meV   omega=      5.4851 meV
     lambda( tot )=       0.054683
     -------------------------------------------------------------------


     Number of (k,k+q) pairs on the Fermi surface:      216 out of      216


     ismear =     1 iq =      69 coord.:   0.16667  0.83333  0.33333 wt:   0.00463
     -------------------------------------------------------------------
     lambda(   1 )=       0.000000   gamma=       0.000000 meV   omega=     -2.1518 meV
     lambda(   2 )=     -17.804188   gamma=      -0.054649 meV   omega=      1.8272 meV
     lambda(   3 )=      -0.076895   gamma=      -0.002995 meV   omega=      6.5091 meV
     lambda( tot )=     -17.881083
     -------------------------------------------------------------------


     Number of (k,k+q) pairs on the Fermi surface:      216 out of      216


     ismear =     1 iq =      70 coord.:   0.16667  0.83333  0.50000 wt:   0.00463
     -------------------------------------------------------------------
     lambda(   1 )=    -200.868179   gamma=      -0.152898 meV   omega=      0.9099 meV
     lambda(   2 )=      -0.730612   gamma=      -0.021262 meV   omega=      5.6261 meV
     lambda(   3 )=       0.216596   gamma=       0.006562 meV   omega=      5.7405 meV
     lambda( tot )=    -201.382195
     -------------------------------------------------------------------


     Number of (k,k+q) pairs on the Fermi surface:      216 out of      216


     ismear =     1 iq =      71 coord.:   0.16667  0.83333  0.66667 wt:   0.00463
     -------------------------------------------------------------------
     lambda(   1 )=       0.000000   gamma=       0.000000 meV   omega=     -2.1518 meV
     lambda(   2 )=     -20.822473   gamma=      -0.063913 meV   omega=      1.8272 meV
     lambda(   3 )=      -0.251564   gamma=      -0.009799 meV   omega=      6.5091 meV
     lambda( tot )=     -21.074037
     -------------------------------------------------------------------


     Number of (k,k+q) pairs on the Fermi surface:      216 out of      216


     ismear =     1 iq =      72 coord.:   0.16667  0.83333  0.83333 wt:   0.00463
     -------------------------------------------------------------------
     lambda(   1 )=       0.000000   gamma=       0.000000 meV   omega=     -3.0878 meV
     lambda(   2 )=       0.000000   gamma=       0.000000 meV   omega=     -2.9013 meV
     lambda(   3 )=      -0.043631   gamma=      -0.001207 meV   omega=      5.4851 meV
     lambda( tot )=      -0.043631
     -------------------------------------------------------------------


     Number of (k,k+q) pairs on the Fermi surface:      216 out of      216


     ismear =     1 iq =      73 coord.:   0.33333  0.00000  0.00000 wt:   0.00463
     -------------------------------------------------------------------
     lambda(   1 )=       0.265914   gamma=       0.001423 meV   omega=      2.4121 meV
     lambda(   2 )=       0.282144   gamma=       0.001509 meV   omega=      2.4121 meV
     lambda(   3 )=       0.875414   gamma=       0.008916 meV   omega=      3.3283 meV
     lambda( tot )=       1.423472
     -------------------------------------------------------------------


     Number of (k,k+q) pairs on the Fermi surface:      216 out of      216


     ismear =     1 iq =      74 coord.:   0.33333  0.00000  0.16667 wt:   0.00463
     -------------------------------------------------------------------
     lambda(   1 )=       0.000000   gamma=       0.000000 meV   omega=     -3.0878 meV
     lambda(   2 )=       0.000000   gamma=       0.000000 meV   omega=     -2.9013 meV
     lambda(   3 )=      -0.027640   gamma=      -0.000765 meV   omega=      5.4851 meV
     lambda( tot )=      -0.027640
     -------------------------------------------------------------------


     Number of (k,k+q) pairs on the Fermi surface:      216 out of      216


     ismear =     1 iq =      75 coord.:   0.33333  0.00000  0.33333 wt:   0.00463
     -------------------------------------------------------------------
     lambda(   1 )=       0.000000   gamma=       0.000000 meV   omega=     -4.4985 meV
     lambda(   2 )=       0.000000   gamma=       0.000000 meV   omega=     -4.4985 meV
     lambda(   3 )=       0.194243   gamma=       0.009616 meV   omega=      7.3381 meV
     lambda( tot )=       0.194243
     -------------------------------------------------------------------


     Number of (k,k+q) pairs on the Fermi surface:      216 out of      216


     ismear =     1 iq =      76 coord.:   0.33333  0.00000  0.50000 wt:   0.00463
     -------------------------------------------------------------------
     lambda(   1 )=       0.000000   gamma=       0.000000 meV   omega=     -3.0209 meV
     lambda(   2 )=       0.000000   gamma=       0.000000 meV   omega=     -2.7837 meV
     lambda(   3 )=       0.292104   gamma=       0.016609 meV   omega=      7.8640 meV
     lambda( tot )=       0.292104
     -------------------------------------------------------------------


     Number of (k,k+q) pairs on the Fermi surface:      216 out of      216


     ismear =     1 iq =      77 coord.:   0.33333  0.00000  0.66667 wt:   0.00463
     -------------------------------------------------------------------
     lambda(   1 )=       0.550127   gamma=       0.004717 meV   omega=      3.0538 meV
     lambda(   2 )=       0.132893   gamma=       0.001640 meV   omega=      3.6637 meV
     lambda(   3 )=       0.131294   gamma=       0.005153 meV   omega=      6.5334 meV
     lambda( tot )=       0.814314
     -------------------------------------------------------------------


     Number of (k,k+q) pairs on the Fermi surface:      216 out of      216


     ismear =     1 iq =      78 coord.:   0.33333  0.00000  0.83333 wt:   0.00463
     -------------------------------------------------------------------
     lambda(   1 )=       0.658860   gamma=       0.007172 meV   omega=      3.4410 meV
     lambda(   2 )=       2.099832   gamma=       0.026194 meV   omega=      3.6835 meV
     lambda(   3 )=      -0.358702   gamma=      -0.006270 meV   omega=      4.3604 meV
     lambda( tot )=       2.399990
     -------------------------------------------------------------------


     Number of (k,k+q) pairs on the Fermi surface:      216 out of      216


     ismear =     1 iq =      79 coord.:   0.33333  0.16667  0.00000 wt:   0.00463
     -------------------------------------------------------------------
     lambda(   1 )=       0.000000   gamma=       0.000000 meV   omega=     -3.0878 meV
     lambda(   2 )=       0.000000   gamma=       0.000000 meV   omega=     -2.9013 meV
     lambda(   3 )=       0.131386   gamma=       0.003634 meV   omega=      5.4851 meV
     lambda( tot )=       0.131386
     -------------------------------------------------------------------


     Number of (k,k+q) pairs on the Fermi surface:      216 out of      216


     ismear =     1 iq =      80 coord.:   0.33333  0.16667  0.16667 wt:   0.00463
     -------------------------------------------------------------------
     lambda(   1 )=       0.000000   gamma=       0.000000 meV   omega=     -2.7995 meV
     lambda(   2 )=       2.121833   gamma=       0.011524 meV   omega=      2.4305 meV
     lambda(   3 )=      -0.474887   gamma=      -0.004139 meV   omega=      3.0788 meV
     lambda( tot )=       1.646946
     -------------------------------------------------------------------


     Number of (k,k+q) pairs on the Fermi surface:      216 out of      216


     ismear =     1 iq =      81 coord.:   0.33333  0.16667  0.33333 wt:   0.00463
     -------------------------------------------------------------------
     lambda(   1 )=       0.000000   gamma=       0.000000 meV   omega=     -3.0878 meV
     lambda(   2 )=       0.000000   gamma=       0.000000 meV   omega=     -2.9013 meV
     lambda(   3 )=       0.060161   gamma=       0.001664 meV   omega=      5.4851 meV
     lambda( tot )=       0.060161
     -------------------------------------------------------------------


     Number of (k,k+q) pairs on the Fermi surface:      216 out of      216


     ismear =     1 iq =      82 coord.:   0.33333  0.16667  0.50000 wt:   0.00463
     -------------------------------------------------------------------
     lambda(   1 )=       0.000000   gamma=       0.000000 meV   omega=     -2.1518 meV
     lambda(   2 )=     -18.299133   gamma=      -0.056168 meV   omega=      1.8272 meV
     lambda(   3 )=      -0.295848   gamma=      -0.011524 meV   omega=      6.5091 meV
     lambda( tot )=     -18.594981
     -------------------------------------------------------------------


     Number of (k,k+q) pairs on the Fermi surface:      216 out of      216


     ismear =     1 iq =      83 coord.:   0.33333  0.16667  0.66667 wt:   0.00463
     -------------------------------------------------------------------
     lambda(   1 )=    -227.941284   gamma=      -0.173506 meV   omega=      0.9099 meV
     lambda(   2 )=      -0.698187   gamma=      -0.020319 meV   omega=      5.6261 meV
     lambda(   3 )=       0.302505   gamma=       0.009165 meV   omega=      5.7405 meV
     lambda( tot )=    -228.336966
     -------------------------------------------------------------------


     Number of (k,k+q) pairs on the Fermi surface:      216 out of      216


     ismear =     1 iq =      84 coord.:   0.33333  0.16667  0.83333 wt:   0.00463
     -------------------------------------------------------------------
     lambda(   1 )=       0.000000   gamma=       0.000000 meV   omega=     -2.1518 meV
     lambda(   2 )=     -10.915584   gamma=      -0.033505 meV   omega=      1.8272 meV
     lambda(   3 )=      -0.300609   gamma=      -0.011710 meV   omega=      6.5091 meV
     lambda( tot )=     -11.216194
     -------------------------------------------------------------------


     Number of (k,k+q) pairs on the Fermi surface:      216 out of      216


     ismear =     1 iq =      85 coord.:   0.33333  0.33333  0.00000 wt:   0.00463
     -------------------------------------------------------------------
     lambda(   1 )=       0.000000   gamma=       0.000000 meV   omega=     -4.4985 meV
     lambda(   2 )=       0.000000   gamma=       0.000000 meV   omega=     -4.4985 meV
     lambda(   3 )=       0.190783   gamma=       0.009445 meV   omega=      7.3381 meV
     lambda( tot )=       0.190783
     -------------------------------------------------------------------


     Number of (k,k+q) pairs on the Fermi surface:      216 out of      216


     ismear =     1 iq =      86 coord.:   0.33333  0.33333  0.16667 wt:   0.00463
     -------------------------------------------------------------------
     lambda(   1 )=       0.000000   gamma=       0.000000 meV   omega=     -3.0878 meV
     lambda(   2 )=       0.000000   gamma=       0.000000 meV   omega=     -2.9013 meV
     lambda(   3 )=       0.129247   gamma=       0.003575 meV   omega=      5.4851 meV
     lambda( tot )=       0.129247
     -------------------------------------------------------------------


     Number of (k,k+q) pairs on the Fermi surface:      216 out of      216


     ismear =     1 iq =      87 coord.:   0.33333  0.33333  0.33333 wt:   0.00463
     -------------------------------------------------------------------
     lambda(   1 )=       0.292932   gamma=       0.001567 meV   omega=      2.4121 meV
     lambda(   2 )=       0.285206   gamma=       0.001526 meV   omega=      2.4121 meV
     lambda(   3 )=       0.886073   gamma=       0.009024 meV   omega=      3.3283 meV
     lambda( tot )=       1.464211
     -------------------------------------------------------------------


     Number of (k,k+q) pairs on the Fermi surface:      216 out of      216


     ismear =     1 iq =      88 coord.:   0.33333  0.33333  0.50000 wt:   0.00463
     -------------------------------------------------------------------
     lambda(   1 )=      -0.075602   gamma=      -0.000823 meV   omega=      3.4410 meV
     lambda(   2 )=       1.845518   gamma=       0.023022 meV   omega=      3.6835 meV
     lambda(   3 )=      -0.137089   gamma=      -0.002396 meV   omega=      4.3604 meV
     lambda( tot )=       1.632827
     -------------------------------------------------------------------


     Number of (k,k+q) pairs on the Fermi surface:      216 out of      216


     ismear =     1 iq =      89 coord.:   0.33333  0.33333  0.66667 wt:   0.00463
     -------------------------------------------------------------------
     lambda(   1 )=       0.526801   gamma=       0.004517 meV   omega=      3.0538 meV
     lambda(   2 )=       0.132527   gamma=       0.001636 meV   omega=      3.6637 meV
     lambda(   3 )=       0.127998   gamma=       0.005023 meV   omega=      6.5334 meV
     lambda( tot )=       0.787326
     -------------------------------------------------------------------


     Number of (k,k+q) pairs on the Fermi surface:      216 out of      216


     ismear =     1 iq =      90 coord.:   0.33333  0.33333  0.83333 wt:   0.00463
     -------------------------------------------------------------------
     lambda(   1 )=       0.000000   gamma=       0.000000 meV   omega=     -3.0209 meV
     lambda(   2 )=       0.000000   gamma=       0.000000 meV   omega=     -2.7837 meV
     lambda(   3 )=       0.271147   gamma=       0.015417 meV   omega=      7.8640 meV
     lambda( tot )=       0.271147
     -------------------------------------------------------------------


     Number of (k,k+q) pairs on the Fermi surface:      216 out of      216


     ismear =     1 iq =      91 coord.:   0.33333  0.50000  0.00000 wt:   0.00463
     -------------------------------------------------------------------
     lambda(   1 )=       0.000000   gamma=       0.000000 meV   omega=     -3.0209 meV
     lambda(   2 )=       0.000000   gamma=       0.000000 meV   omega=     -2.7837 meV
     lambda(   3 )=       0.255363   gamma=       0.014520 meV   omega=      7.8640 meV
     lambda( tot )=       0.255363
     -------------------------------------------------------------------


     Number of (k,k+q) pairs on the Fermi surface:      216 out of      216


     ismear =     1 iq =      92 coord.:   0.33333  0.50000  0.16667 wt:   0.00463
     -------------------------------------------------------------------
     lambda(   1 )=       0.000000   gamma=       0.000000 meV   omega=     -2.1518 meV
     lambda(   2 )=     -16.610818   gamma=      -0.050986 meV   omega=      1.8272 meV
     lambda(   3 )=      -0.256528   gamma=      -0.009993 meV   omega=      6.5091 meV
     lambda( tot )=     -16.867346
     -------------------------------------------------------------------


     Number of (k,k+q) pairs on the Fermi surface:      216 out of      216


     ismear =     1 iq =      93 coord.:   0.33333  0.50000  0.33333 wt:   0.00463
     -------------------------------------------------------------------
     lambda(   1 )=       0.322427   gamma=       0.003510 meV   omega=      3.4410 meV
     lambda(   2 )=       1.972447   gamma=       0.024605 meV   omega=      3.6835 meV
     lambda(   3 )=      -0.497468   gamma=      -0.008696 meV   omega=      4.3604 meV
     lambda( tot )=       1.797407
     -------------------------------------------------------------------


     Number of (k,k+q) pairs on the Fermi surface:      216 out of      216


     ismear =     1 iq =      94 coord.:   0.33333  0.50000  0.50000 wt:   0.00463
     -------------------------------------------------------------------
     lambda(   1 )=      -2.587704   gamma=      -0.017909 meV   omega=      2.7436 meV
     lambda(   2 )=      -1.680882   gamma=      -0.016989 meV   omega=      3.3156 meV
     lambda(   3 )=      -0.344878   gamma=      -0.010507 meV   omega=      5.7564 meV
     lambda( tot )=      -4.613464
     -------------------------------------------------------------------


     Number of (k,k+q) pairs on the Fermi surface:      216 out of      216


     ismear =     1 iq =      95 coord.:   0.33333  0.50000  0.66667 wt:   0.00463
     -------------------------------------------------------------------
     lambda(   1 )=    -195.501320   gamma=      -0.148813 meV   omega=      0.9099 meV
     lambda(   2 )=      -0.704772   gamma=      -0.020510 meV   omega=      5.6261 meV
     lambda(   3 )=       0.264317   gamma=       0.008008 meV   omega=      5.7405 meV
     lambda( tot )=    -195.941775
     -------------------------------------------------------------------


     Number of (k,k+q) pairs on the Fermi surface:      216 out of      216


     ismear =     1 iq =      96 coord.:   0.33333  0.50000  0.83333 wt:   0.00463
     -------------------------------------------------------------------
     lambda(   1 )=       0.000000   gamma=       0.000000 meV   omega=     -2.8257 meV
     lambda(   2 )=      -6.146800   gamma=      -0.065648 meV   omega=      3.4083 meV
     lambda(   3 )=      -0.558211   gamma=      -0.030002 meV   omega=      7.6458 meV
     lambda( tot )=      -6.705012
     -------------------------------------------------------------------


     Number of (k,k+q) pairs on the Fermi surface:      216 out of      216


     ismear =     1 iq =      97 coord.:   0.33333  0.66667  0.00000 wt:   0.00463
     -------------------------------------------------------------------
     lambda(   1 )=       0.526981   gamma=       0.004518 meV   omega=      3.0538 meV
     lambda(   2 )=       0.134054   gamma=       0.001654 meV   omega=      3.6637 meV
     lambda(   3 )=       0.128056   gamma=       0.005026 meV   omega=      6.5334 meV
     lambda( tot )=       0.789091
     -------------------------------------------------------------------


     Number of (k,k+q) pairs on the Fermi surface:      216 out of      216


     ismear =     1 iq =      98 coord.:   0.33333  0.66667  0.16667 wt:   0.00463
     -------------------------------------------------------------------
     lambda(   1 )=    -219.949122   gamma=      -0.167423 meV   omega=      0.9099 meV
     lambda(   2 )=      -0.734413   gamma=      -0.021373 meV   omega=      5.6261 meV
     lambda(   3 )=       0.279382   gamma=       0.008464 meV   omega=      5.7405 meV
     lambda( tot )=    -220.404153
     -------------------------------------------------------------------


     Number of (k,k+q) pairs on the Fermi surface:      216 out of      216


     ismear =     1 iq =      99 coord.:   0.33333  0.66667  0.33333 wt:   0.00463
     -------------------------------------------------------------------
     lambda(   1 )=       0.549893   gamma=       0.004715 meV   omega=      3.0538 meV
     lambda(   2 )=       0.134571   gamma=       0.001661 meV   omega=      3.6637 meV
     lambda(   3 )=       0.131314   gamma=       0.005153 meV   omega=      6.5334 meV
     lambda( tot )=       0.815778
     -------------------------------------------------------------------


     Number of (k,k+q) pairs on the Fermi surface:      216 out of      216


     ismear =     1 iq =     100 coord.:   0.33333  0.66667  0.50000 wt:   0.00463
     -------------------------------------------------------------------
     lambda(   1 )=    -211.475010   gamma=      -0.160972 meV   omega=      0.9099 meV
     lambda(   2 )=      -0.565096   gamma=      -0.016446 meV   omega=      5.6261 meV
     lambda(   3 )=       0.197583   gamma=       0.005986 meV   omega=      5.7405 meV
     lambda( tot )=    -211.842523
     -------------------------------------------------------------------


     Number of (k,k+q) pairs on the Fermi surface:      216 out of      216


     ismear =     1 iq =     101 coord.:   0.33333  0.66667  0.66667 wt:   0.00463
     -------------------------------------------------------------------
     lambda(   1 )=       0.538195   gamma=       0.004614 meV   omega=      3.0538 meV
     lambda(   2 )=       0.141523   gamma=       0.001747 meV   omega=      3.6637 meV
     lambda(   3 )=       0.137213   gamma=       0.005385 meV   omega=      6.5334 meV
     lambda( tot )=       0.816932
     -------------------------------------------------------------------


     Number of (k,k+q) pairs on the Fermi surface:      216 out of      216


     ismear =     1 iq =     102 coord.:   0.33333  0.66667  0.83333 wt:   0.00463
     -------------------------------------------------------------------
     lambda(   1 )=    -171.450832   gamma=      -0.130506 meV   omega=      0.9099 meV
     lambda(   2 )=      -0.714933   gamma=      -0.020806 meV   omega=      5.6261 meV
     lambda(   3 )=       0.227652   gamma=       0.006897 meV   omega=      5.7405 meV
     lambda( tot )=    -171.938113
     -------------------------------------------------------------------


     Number of (k,k+q) pairs on the Fermi surface:      216 out of      216


     ismear =     1 iq =     103 coord.:   0.33333  0.83333  0.00000 wt:   0.00463
     -------------------------------------------------------------------
     lambda(   1 )=       0.057479   gamma=       0.000626 meV   omega=      3.4410 meV
     lambda(   2 )=       2.010471   gamma=       0.025079 meV   omega=      3.6835 meV
     lambda(   3 )=       0.137992   gamma=       0.002412 meV   omega=      4.3604 meV
     lambda( tot )=       2.205943
     -------------------------------------------------------------------


     Number of (k,k+q) pairs on the Fermi surface:      216 out of      216


     ismear =     1 iq =     104 coord.:   0.33333  0.83333  0.16667 wt:   0.00463
     -------------------------------------------------------------------
     lambda(   1 )=       0.000000   gamma=       0.000000 meV   omega=     -2.1518 meV
     lambda(   2 )=     -16.484657   gamma=      -0.050599 meV   omega=      1.8272 meV
     lambda(   3 )=      -0.243731   gamma=      -0.009494 meV   omega=      6.5091 meV
     lambda( tot )=     -16.728388
     -------------------------------------------------------------------


     Number of (k,k+q) pairs on the Fermi surface:      216 out of      216


     ismear =     1 iq =     105 coord.:   0.33333  0.83333  0.33333 wt:   0.00463
     -------------------------------------------------------------------
     lambda(   1 )=       0.000000   gamma=       0.000000 meV   omega=     -3.0209 meV
     lambda(   2 )=       0.000000   gamma=       0.000000 meV   omega=     -2.7837 meV
     lambda(   3 )=       0.246130   gamma=       0.013995 meV   omega=      7.8640 meV
     lambda( tot )=       0.246130
     -------------------------------------------------------------------


     Number of (k,k+q) pairs on the Fermi surface:      216 out of      216


[...]
      203        7      3.9744    797.2709   1660.1501      1.4651     -0.3175
      204        7      5.4115    732.9127    651.0520      1.0610     -0.0575
      205        7      5.5415    822.6290    784.7776      1.1123     -0.1010
      206        7      3.9749    792.5323   1647.1161      1.4579     -0.3141
      207        7      2.9120      6.9448   2857.3785      5.2995     -0.8113
      208        7      3.9743    788.6147   1690.8558      1.5032     -0.3347
      209        7      5.5421    838.1408    761.7823      1.0990     -0.0901
      210        7      6.8269    512.8723    191.5101      0.9746      0.0261
      211        7      6.6650    591.6987    311.2429      1.0093     -0.0092
      212        7      5.5414    820.2402    778.3434      1.1088     -0.0982
      213        7      4.6203    874.2537   1104.6493      1.0091     -0.0090
      214        7      5.4114    731.0142    663.6603      1.0609     -0.0574
      215        7      6.8262    507.5296    188.1170      0.9752      0.0254
      216        7      7.7486    436.4147     24.3633      0.9338      0.0709
  
        1        8      8.2392    279.9293      5.0794      0.9573      0.0446
        2        8      7.7512    437.3757     24.4128      0.9334      0.0713
        3        8      6.6655    753.8878    254.1060      0.9337      0.0711
        4        8      6.0704    617.1557    353.3818      0.9494      0.0533
        5        8      6.6655    745.7765    246.6382      0.9347      0.0699
        6        8      7.7512    438.1912     23.6799      0.9336      0.0711
        7        8      7.7511    439.6842     25.6586      0.9339      0.0708
        8        8      6.6659    583.0597    314.6686      1.0150     -0.0148
        9        8      5.5437    831.3072    772.9025      1.1015     -0.0921
       10        8      4.6233    896.1139   1117.0618      1.0077     -0.0076
       11        8      5.4149    737.1858    679.0169      1.0671     -0.0629
       12        8      6.8349    504.8828    181.3673      0.9738      0.0270
       13        8      6.6655    741.0433    255.7477      0.9390      0.0650
       14        8      5.5437    837.5646    779.9713      1.1075     -0.0971
       15        8      3.3797    283.9779   1112.6665      1.2368     -0.1915
       16        8      2.3330   -206.4024   1443.6449      1.2913     -0.2256
       17        8      3.4484    772.9291   2053.6837      1.7755     -0.4368
       18        8      5.4149    730.7328    662.3569      1.0584     -0.0552
       19        8      6.0705    616.9923    352.0286      0.9492      0.0536
       20        8      4.6234    897.4338   1124.6188      1.0117     -0.0116
       21        8      2.3330   -216.2306   1426.1276      1.2720     -0.2138
       22        8      1.6661     93.9069    542.3266      0.9602      0.0414
       23        8      2.3330   -204.6343   1446.5921      1.2896     -0.2245
       24        8      4.6234    901.8620   1105.5606      1.0021     -0.0021
       25        8      6.6655    754.9242    260.1480      0.9357      0.0687
       26        8      5.4149    738.6903    674.2640      1.0665     -0.0624
       27        8      3.4484    809.9484   2103.8184      1.8666     -0.4643
       28        8      2.3330   -220.7855   1430.8395      1.2733     -0.2146
       29        8      3.3797    289.4993   1124.0553      1.2440     -0.1961
       30        8      5.5437    838.3261    772.2404      1.1006     -0.0914
       31        8      7.7511    437.0842     23.7549      0.9333      0.0715
       32        8      6.8349    515.0289    187.2831      0.9706      0.0303
       33        8      5.4149    738.7430    659.9836      1.0596     -0.0563
       34        8      4.6232    897.7379   1117.0203      1.0063     -0.0063
       35        8      5.5437    846.1728    766.6995      1.0991     -0.0901
       36        8      6.6659    587.5540    294.6421      1.0041     -0.0040
       37        8      7.7513    436.7915     24.8417      0.9340      0.0706
       38        8      6.6659    590.4697    303.7973      1.0062     -0.0062
       39        8      5.5437    826.4617    785.7273      1.1125     -0.1011
       40        8      4.6233    890.1862   1124.1782      1.0131     -0.0129
       41        8      5.4146    736.5364    666.0334      1.0632     -0.0595
       42        8      6.8345    507.5963    181.7923      0.9727      0.0280
       43        8      6.6652    594.9325    305.4180      1.0078     -0.0077
       44        8      7.7512    437.1286     23.6826      0.9334      0.0713
       45        8      6.8356    509.1055    178.3703      0.9691      0.0319
       46        8      5.4152    736.6498    655.9431      1.0610     -0.0575
       47        8      4.6220    897.9186   1113.1957      1.0128     -0.0126
       48        8      5.5432    839.1201    775.8819      1.1066     -0.0963
       49        8      5.5432    830.5737    767.2056      1.1014     -0.0921
       50        8      6.8348    507.2235    182.5153      0.9730      0.0278
       51        8      5.5438    840.4751    775.5028      1.1031     -0.0935
       52        8      4.0152    813.1318   1645.8966      1.4780     -0.3234
       53        8      2.9440     53.1037   2918.0218      5.9361     -0.8315
       54        8      4.0140    797.2618   1665.9772      1.5019     -0.3342
       55        8      4.6221    883.4521   1098.8298      1.0082     -0.0081
       56        8      5.4149    738.4352    656.3988      1.0578     -0.0547
       57        8      4.0152    809.4390   1674.6651      1.5055     -0.3358
       58        8      2.3333   -220.3860   1440.5128      1.2824     -0.2202
       59        8      1.3925    -59.4976   1693.2360      1.0490     -0.0468
       60        8      2.9442     49.9364   2903.8710      5.6265     -0.8223
       61        8      5.4152    734.8926    665.2709      1.0653     -0.0613
       62        8      4.6234    887.8834   1118.1161      1.0106     -0.0105
       63        8      2.9437     52.7751   2902.6310      5.4842     -0.8177
       64        8      1.3899    -60.4117   1685.4602      1.0470     -0.0449
       65        8      2.3332   -219.0720   1437.1223      1.2780     -0.2175
       66        8      4.0152    816.0109   1648.0604      1.4724     -0.3208
       67        8      6.8356    512.6336    187.6675      0.9728      0.0279
       68        8      5.5437    827.2248    786.2110      1.1115     -0.1003
       69        8      4.0153    818.1518   1623.5725      1.4638     -0.3169
       70        8      2.9434     49.6659   2898.2584      5.3876     -0.8144
       71        8      4.0150    809.1618   1685.1608      1.5177     -0.3411
       72        8      5.5438    846.3134    775.0372      1.1023     -0.0928
       73        8      6.6655    740.9801    247.9620      0.9363      0.0681
       74        8      5.5438    833.0321    790.6504      1.1133     -0.1018
       75        8      3.3797    291.5728   1122.7299      1.2337     -0.1894
       76        8      2.3332   -204.2224   1420.8062      1.2771     -0.2170
       77        8      3.4484    776.2414   2047.0573      1.7781     -0.4376
       78        8      5.4146    729.8388    656.8994      1.0616     -0.0580
       79        8      5.5432    816.8596    768.8603      1.1080     -0.0974
       80        8      6.8344    506.5912    183.9788      0.9731      0.0277
       81        8      5.5438    833.9015    793.1802      1.1157     -0.1037
       82        8      4.0152    817.4452   1636.2780      1.4753     -0.3222
       83        8      2.9439     44.3513   2888.8149      5.2897     -0.8110
       84        8      4.0137    800.9227   1654.0921      1.4920     -0.3297
       85        8      3.3797    268.5415   1134.6793      1.2454     -0.1970
       86        8      5.5432    818.0322    766.5533      1.1051     -0.0951
       87        8      6.6655    744.9075    249.8661      0.9358      0.0686
       88        8      5.4152    742.2290    657.6609      1.0598     -0.0565
       89        8      3.4484    804.4202   2066.9723      1.8025     -0.4452
       90        8      2.3325   -221.0343   1429.4989      1.2877     -0.2234
       91        8      2.3325   -218.5469   1422.5610      1.2844     -0.2214
       92        8      4.0140    806.2326   1643.5168      1.4828     -0.3256
       93        8      5.4148    732.2934    657.5952      1.0617     -0.0581
       94        8      4.6233    902.7344   1120.9295      1.0054     -0.0054
       95        8      2.9437     37.5218   2914.5223      5.5647     -0.8203
       96        8      1.3925    -43.2845   1670.1516      1.0466     -0.0445
       97        8      3.4484    802.5750   2062.5931      1.7963     -0.4433
       98        8      2.9442     49.3086   2876.2329      5.1651     -0.8064
       99        8      3.4484    785.2951   2062.5815      1.8005     -0.4446
      100        8      2.9432     52.2570   2930.2839      6.1135     -0.8364
      101        8      3.4484    800.3911   2092.5836      1.8367     -0.4555
      102        8      2.9434     36.7121   2898.4946      5.2547     -0.8097
      103        8      5.4151    742.4920    666.3232      1.0641     -0.0602
      104        8      4.0152    817.1938   1634.0361      1.4736     -0.3214
      105        8      2.3331   -201.5295   1428.3210      1.2824     -0.2202
      106        8      1.3899    -52.5722   1685.6835      1.0553     -0.0524
      107        8      2.9428     47.1261   2921.1723      5.9336     -0.8315
      108        8      4.6231    904.6048   1116.8093      1.0041     -0.0041
      109        8      6.0703    614.6505    355.1842      0.9494      0.0533
      110        8      4.6231    879.6039   1111.0434      1.0083     -0.0083
      111        8      2.3332   -206.8176   1418.9297      1.2807     -0.2191
      112        8      1.6661     84.9621    545.8750      0.9604      0.0412
      113        8      2.3332   -211.8651   1449.7459      1.3033     -0.2327
      114        8      4.6231    894.6626   1093.6280      1.0065     -0.0065
      115        8      4.6217    888.4563   1106.7140      1.0156     -0.0154
      116        8      5.4145    735.3611    666.0062      1.0619     -0.0583
      117        8      4.0149    807.7657   1652.2233      1.4863     -0.3272
      118        8      2.3330   -206.7786   1415.6712      1.2762     -0.2164
      119        8      1.3926    -56.9853   1692.4761      1.0521     -0.0496
      120        8      2.9434     62.5551   2930.2429      6.2415     -0.8398
      121        8      2.3323   -213.4740   1437.4824      1.3010     -0.2314
      122        8      4.0137    797.3416   1632.0858      1.4840     -0.3261
      123        8      5.4145    730.2680    660.4493      1.0593     -0.0560
      124        8      4.6231    881.1489   1114.9493      1.0104     -0.0103
      125        8      2.9438     50.8058   2876.1797      5.1048     -0.8041
      126        8      1.3925    -57.8656   1696.5563      1.0552     -0.0524
      127        8      1.6672     84.3975    545.0415      0.9600      0.0417
      128        8      2.3324   -214.3808   1429.0987      1.2955     -0.2281
      129        8      4.6219    889.5317   1102.3829      1.0131     -0.0129
      130        8      6.0704    614.3918    354.1208      0.9494      0.0533
      131        8      4.6219    881.7668   1130.5480      1.0117     -0.0115
      132        8      2.3324   -214.9163   1415.7113      1.2713     -0.2134
      133        8      2.3323   -217.9759   1415.1919      1.2699     -0.2126
      134        8      1.3925    -55.2412   1684.7306      1.0514     -0.0489
      135        8      2.9438     61.6061   2927.4713      6.1338     -0.8370
      136        8      4.6232    896.8303   1100.0183      1.0110     -0.0109
      137        8      5.4145    742.3361    663.8249      1.0582     -0.0550
      138        8      4.0137    817.9910   1668.6364      1.4945     -0.3309
      139        8      4.6216    879.2252   1143.1718      1.0165     -0.0162
      140        8      2.9434     50.5368   2875.6211      5.1060     -0.8042
      141        8      1.3926    -59.2792   1699.0033      1.0561     -0.0531
      142        8      2.3330   -209.4158   1455.1116      1.3064     -0.2345
      143        8      4.0149    804.9162   1638.7388      1.4801     -0.3244
      144        8      5.4145    736.7735    661.3382      1.0572     -0.0541
      145        8      6.6655    753.3461    259.7335      0.9356      0.0689
      146        8      5.4146    734.1178    662.4860      1.0600     -0.0566
      147        8      3.4484    799.5380   2044.8585      1.7723     -0.4358
      148        8      2.3332   -221.2727   1440.8500      1.2990     -0.2302
      149        8      3.3797    266.2803   1148.6485      1.2514     -0.2009
      150        8      5.5438    825.4053    760.2676      1.0991     -0.0902
      151        8      5.4152    730.5315    657.5674      1.0630     -0.0592
      152        8      4.6231    895.1951   1116.5161      1.0091     -0.0090
      153        8      2.9428     41.2863   2883.2175      5.2335     -0.8089
      154        8      1.3899    -58.2855   1676.0234      1.0496     -0.0473
      155        8      2.3331   -221.1049   1435.0157      1.2966     -0.2288
      156        8      4.0152    802.9731   1652.1986      1.4962     -0.3317
      157        8      3.4484    773.5885   2044.8756      1.7746     -0.4365
      158        8      2.9434     65.4467   2915.4211      6.0464     -0.8346
      159        8      3.4484    784.1630   2066.5554      1.8164     -0.4495
      160        8      2.9432     41.6569   2877.0342      5.0806     -0.8032
      161        8      3.4484    799.9112   2048.9176      1.7839     -0.4394
      162        8      2.9442     68.6916   2923.2061      6.1122     -0.8364
      163        8      2.3325   -203.4305   1432.2220      1.2897     -0.2246
      164        8      1.3925    -60.7237   1687.5342      1.0570     -0.0539
      165        8      2.9437     61.7017   2915.1736      6.0086     -0.8336
      166        8      4.6233    893.5211   1114.5813      1.0073     -0.0072
      167        8      5.4148    735.1234    663.9337      1.0604     -0.0570
      168        8      4.0140    814.2464   1635.6369      1.4793     -0.3240
      169        8      3.3797    286.9531   1132.9591      1.2370     -0.1916
      170        8      2.3325   -205.8634   1430.5590      1.2889     -0.2241
      171        8      3.4484    771.0055   2041.0628      1.7770     -0.4373
      172        8      5.4152    728.4428    655.2866      1.0633     -0.0595
      173        8      6.6655    753.4139    253.7328      0.9337      0.0710
      174        8      5.5432    836.6720    790.0151      1.1091     -0.0983
      175        8      5.5432    835.5073    799.8367      1.1152     -0.1033
      176        8      4.0137    815.1894   1634.9948      1.4783     -0.3235
      177        8      2.9439     61.7278   2916.4567      5.9054     -0.8307
      178        8      4.0152    799.1996   1658.7946      1.5018     -0.3341
      179        8      5.5437    826.3395    767.5055      1.1038     -0.0940
      180        8      6.8344    509.6619    180.3896      0.9693      0.0317
      181        8      7.7513    437.4025     23.7275      0.9333      0.0714
      182        8      6.8345    507.5506    176.8628      0.9689      0.0321
      183        8      5.4146    733.2854    643.6097      1.0573     -0.0542
      184        8      4.6233    890.4655   1110.3510      1.0117     -0.0116
      185        8      5.5438    831.9538    777.0389      1.1076     -0.0972
      186        8      6.6659    595.6856    305.1686      1.0074     -0.0073
      187        8      6.8356    508.8824    189.0144      0.9758      0.0248
      188        8      5.5438    832.1962    777.6876      1.1088     -0.0981
      189        8      4.0150    815.2171   1634.7301      1.4768     -0.3228
      190        8      2.9435     54.8168   2930.6228      6.1797     -0.8382
      191        8      4.0153    801.7308   1676.1243      1.5106     -0.3380
      192        8      5.5437    827.4018    764.7057      1.0993     -0.0903
      193        8      5.4152    731.5740    660.3828      1.0583     -0.0550
      194        8      4.0152    811.0006   1665.9970      1.5096     -0.3376
      195        8      2.3332   -204.7123   1433.8759      1.2829     -0.2205
      196        8      1.3898    -56.1261   1696.9401      1.0506     -0.0482
      197        8      2.9437     50.8146   2922.0872      5.9575     -0.8321
      198        8      4.6234    881.8098   1102.4225      1.0089     -0.0088
      199        8      4.6221    881.6859   1105.4819      1.0086     -0.0086
      200        8      2.9442     42.4429   2884.7339      5.1949     -0.8075
      201        8      1.3925    -54.2635   1691.8113      1.0480     -0.0458
      202        8      2.3333   -206.2613   1433.7506      1.2818     -0.2199
      203        8      4.0152    819.2740   1644.2750      1.4818     -0.3251
      204        8      5.4149    732.3784    652.6800      1.0613     -0.0577
      205        8      5.5432    824.0660    791.9800      1.1155     -0.1035
      206        8      4.0140    814.6181   1632.2476      1.4748     -0.3219
      207        8      2.9440     41.2354   2887.7705      5.1700     -0.8066
      208        8      4.0153    811.8379   1674.2867      1.5199     -0.3421
      209        8      5.5438    839.6470    768.9357      1.1019     -0.0925
      210        8      6.8348    511.4661    184.8282      0.9721      0.0287
      211        8      6.6652    590.6355    310.7281      1.0095     -0.0094
      212        8      5.5432    821.3851    786.1519      1.1124     -0.1011
      213        8      4.6220    879.7355   1098.8353      1.0056     -0.0055
      214        8      5.4152    730.1755    663.8882      1.0612     -0.0577
      215        8      6.8356    505.4772    180.3356      0.9725      0.0283
      216        8      7.7512    438.5936     23.9462      0.9333      0.0715
  

     ===================================================================
     Eliashberg Spectral Function in the Migdal Approximation
     ===================================================================

     lambda :    0.6409664
     lambda_tr :    2.5316394

     Estimated Allen-Dynes Tc

     logavg =    0.0002543 l_a2F =    0.6410451
     mu =   0.10 Tc =         1.111388460343 K
     mu =   0.12 Tc =         0.909000809310 K
     mu =   0.14 Tc =         0.724947104123 K
     mu =   0.16 Tc =         0.560907717495 K
     mu =   0.18 Tc =         0.418299475261 K
     mu =   0.20 Tc =         0.298116520086 K
     a2F          :      0.06s CPU      0.06s WALL (       1 calls)

     Unfolding on the coarse grid
     elphon_wrap  :    140.18s CPU    140.71s WALL (       1 calls)

     INITIALIZATION: 

     init_vloc    :      0.10s CPU      0.10s WALL (      29 calls)
     init_us_1    :      2.84s CPU      2.84s WALL (      29 calls)


     Electron-Phonon interpolation
     ephwann      :      2.53s CPU      2.55s WALL (       1 calls)
     ep-interp    :      2.19s CPU      2.20s WALL (     216 calls)
     PH SELF-ENER :      0.09s CPU      0.09s WALL (     216 calls)

     Ham: step 1  :      0.00s CPU      0.00s WALL (       1 calls)
     Ham: step 2  :      0.00s CPU      0.00s WALL (       1 calls)
     ep: step 1   :      0.00s CPU      0.00s WALL (      81 calls)
     ep: step 2   :      0.02s CPU      0.02s WALL (      81 calls)
     DynW2B       :      0.00s CPU      0.00s WALL (     216 calls)
     HamW2B       :      0.97s CPU      0.96s WALL (   23436 calls)
     ephW2Bp      :      0.10s CPU      0.10s WALL (     216 calls)


     Total program execution
     EPW          :  2m33.44s CPU     2m34.03s WALL

