
     Program HP v.6.3 starts on  4Feb2019 at 15:45: 8 

     This program is part of the open-source Quantum ESPRESSO suite
     for quantum simulation of materials; please cite
         "P. Giannozzi et al., J. Phys.:Condens. Matter 21 395502 (2009);
         "P. Giannozzi et al., J. Phys.:Condens. Matter 29 465901 (2017);
          URL http://www.quantum-espresso.org", 
     in publications or presentations arising from this work. More details at
     http://www.quantum-espresso.org/quote

     Parallel version (MPI), running on     8 processors

     MPI processes distributed on     1 nodes
     R & G space division:  proc/nbgrp/npool/nimage =       8

     =--------------------------------------------------------------------------=

       Calculation of Hubbard parameters from DFPT; please cite this program as

       I. Timrov, N. Marzari, and M. Cococcioni, Phys. Rev. B 98, 085127 (2018)

     =--------------------------------------------------------------------------=

     Reading data from directory:
     /scratch/timrov/WORK_DFPT_plus_U/A_PORTING_2018/A_Gitlab/A_my_Gitlab_08.11.2018/q-e/tempdir/Ni2MnGa.save/

     IMPORTANT: XC functional enforced from input :
     Exchange-correlation      = PBESOL ( 1  4 10  8 0 0)
     Any further DFT definition will be discarded
     Please, verify this is what you really want

               file Mn.pbesol-spn-rrkjus_psl.0.3.1.UPF: wavefunction(s)  3D renormalized
               file Ni.pbesol-n-rrkjus_psl.0.1.UPF: wavefunction(s)  3D renormalized
               file Ga.pbesol-dn-rrkjus_psl.0.2.UPF: wavefunction(s)  4S 3D renormalized
 
     Parallelization info
     --------------------
     sticks:   dense  smooth     PW     G-vecs:    dense   smooth      PW
     Min         207     105     33                 5652     2016     371
     Max         208     106     35                 5656     2019     372
     Sum        1663     847    271                45239    16145    2975
 
     Generating pointlists ...
     new r_m :   0.2526 (alat units)  1.9703 (a.u.) for type    1
     new r_m :   0.2526 (alat units)  1.9703 (a.u.) for type    2
     new r_m :   0.2526 (alat units)  1.9703 (a.u.) for type    3

     Check: negative core charge=   -0.000006
 --- in v_hubbard ---
Hubbard energy    0.0000
 -------
 

     bravais-lattice index     =             7
     lattice parameter (alat)  =        7.8000 (a.u.)
     unit-cell volume          =      335.5589 (a.u.)^3
     number of atoms/cell      =             4
     number of atomic types    =             3
     kinetic-energy cut-off    =         50.00 (Ry)
     charge density cut-off    =        400.00 (Ry)
     conv. thresh. for NSCF    =       1.0E-11
     conv. thresh. for chi     =       1.0E-08
     Input Hubbard parameters (in eV):
       U ( 1)                     =   1.00000E-08
       U ( 2)                     =   1.00000E-08

     celldm(1) =  7.80000  celldm(2) =  0.00000  celldm(3) =  1.41421
     celldm(4) =  0.00000  celldm(5) =  0.00000  celldm(6) =  0.00000

     crystal axes: (cart. coord. in units of alat)
               a(1) = (  0.5000 -0.5000  0.7071 )  
               a(2) = (  0.5000  0.5000  0.7071 )  
               a(3) = ( -0.5000 -0.5000  0.7071 )  

     reciprocal axes: (cart. coord. in units 2 pi/alat)
               b(1) = (  1.0000 -1.0000  0.0000 )  
               b(2) = (  0.0000  1.0000  0.7071 )  
               b(3) = ( -1.0000  0.0000  0.7071 )  

     Atoms inside the unit cell (Cartesian axes):
     site n.  atom      mass           positions (alat units)
        1      Mn     54.9380   tau(  1) = (  0.00000  0.00000  0.00000  )
        2      Ni     58.6930   tau(  2) = (  0.50000  0.00000  1.06066  )
        3      Ni     58.6930   tau(  3) = (  0.00000 -0.50000  1.06066  )
        4      Ga     69.7230   tau(  4) = (  0.00000  0.00000  0.70711  )

     Atom which will be perturbed:

        2      Ni     58.6930   tau( 2) = (  0.50000  0.00000  1.06066  )

     Reading data from directory:
     /scratch/timrov/WORK_DFPT_plus_U/A_PORTING_2018/A_Gitlab/A_my_Gitlab_08.11.2018/q-e/tempdir/Ni2MnGa.save/

     IMPORTANT: XC functional enforced from input :
     Exchange-correlation      = PBESOL ( 1  4 10  8 0 0)
     Any further DFT definition will be discarded
     Please, verify this is what you really want

               file Mn.pbesol-spn-rrkjus_psl.0.3.1.UPF: wavefunction(s)  3D renormalized
               file Ni.pbesol-n-rrkjus_psl.0.1.UPF: wavefunction(s)  3D renormalized
               file Ga.pbesol-dn-rrkjus_psl.0.2.UPF: wavefunction(s)  4S 3D renormalized
 
     Parallelization info
     --------------------
     sticks:   dense  smooth     PW     G-vecs:    dense   smooth      PW
     Min         207     105     33                 5652     2016     371
     Max         208     106     35                 5656     2019     372
     Sum        1663     847    271                45239    16145    2975
 
     Generating pointlists ...

     Check: negative core charge=   -0.000006
 --- in v_hubbard ---
Hubbard energy    0.0000
 -------
 
     =====================================================================

                          PERTURBED ATOM #    2

     site n.  atom      mass           positions (alat units)
        2      Ni     58.6930   tau( 2) = (  0.50000  0.00000  1.06066  )
 
     =====================================================================

     The perturbed atom has a type which is not unique!
     Changing the type of the perturbed atom and recomputing the symmetries...
     The number of symmetries is reduced :
     nsym =  8  nsym_PWscf = 16
     Changing the type of the perturbed atom back to its original type...


     The grid of q-points ( 2, 2, 2)  (  4 q-points ) :
       N       xq(1)         xq(2)         xq(3)       wq
       1   0.000000000   0.000000000   0.000000000   0.125000000
       2   0.500000000   0.000000000  -0.353553381   0.500000000
       3   0.500000000  -0.500000000  -0.707106762   0.250000000
       4   0.000000000   0.000000000  -0.707106762   0.125000000


     =-------------------------------------------------------------=

     Calculation for q #   3 = (   0.5000000  -0.5000000  -0.7071068 )

     =-------------------------------------------------------------=

     Performing NSCF calculation at all points k and k+q...

     Subspace diagonalization in iterative solution of the eigenvalue problem:
     a serial algorithm will be used

 
     Parallelization info
     --------------------
     sticks:   dense  smooth     PW     G-vecs:    dense   smooth      PW
     Min         207     105     40                 5652     2016     492
     Max         208     106     43                 5656     2019     494
     Sum        1663     847    337                45239    16145    3943
 


     bravais-lattice index     =            7
     lattice parameter (alat)  =       7.8000  a.u.
     unit-cell volume          =     335.5589 (a.u.)^3
     number of atoms/cell      =            4
     number of atomic types    =            3
     number of electrons       =        48.00
     number of Kohn-Sham states=           29
     kinetic-energy cutoff     =      50.0000  Ry
     charge density cutoff     =     400.0000  Ry
     Exchange-correlation      = PBESOL ( 1  4 10  8 0 0)

     celldm(1)=   7.800000  celldm(2)=   0.000000  celldm(3)=   1.414214
     celldm(4)=   0.000000  celldm(5)=   0.000000  celldm(6)=   0.000000

     crystal axes: (cart. coord. in units of alat)
               a(1) = (   0.500000  -0.500000   0.707107 )  
               a(2) = (   0.500000   0.500000   0.707107 )  
               a(3) = (  -0.500000  -0.500000   0.707107 )  

     reciprocal axes: (cart. coord. in units 2 pi/alat)
               b(1) = (  1.000000 -1.000000  0.000000 )  
               b(2) = (  0.000000  1.000000  0.707107 )  
               b(3) = ( -1.000000  0.000000  0.707107 )  


     PseudoPot. # 1 for Mn read from file:
     /scratch/timrov/WORK_DFPT_plus_U/A_PORTING_2018/A_Gitlab/A_my_Gitlab_08.11.2018/q-e/pseudo/Mn.pbesol-spn-rrkjus_psl.0.3.1.UPF
     MD5 check sum: 61e28eea34dae291f95a967fe31318f1
     Pseudo is Ultrasoft + core correction, Zval = 15.0
     Generated using "atomic" code by A. Dal Corso v.6.3
     Using radial grid of 1187 points,  6 beta functions with: 
                l(1) =   0
                l(2) =   0
                l(3) =   1
                l(4) =   1
                l(5) =   2
                l(6) =   2
     Q(r) pseudized with 0 coefficients 


     PseudoPot. # 2 for Ni read from file:
     /scratch/timrov/WORK_DFPT_plus_U/A_PORTING_2018/A_Gitlab/A_my_Gitlab_08.11.2018/q-e/pseudo/Ni.pbesol-n-rrkjus_psl.0.1.UPF
     MD5 check sum: 8a65ecc087b22b902f7e15bb4f925df7
     Pseudo is Ultrasoft + core correction, Zval = 10.0
     Generated using "atomic" code by A. Dal Corso v.5.0.2 svn rev. 9415
     Using radial grid of 1195 points,  6 beta functions with: 
                l(1) =   0
                l(2) =   0
                l(3) =   1
                l(4) =   1
                l(5) =   2
                l(6) =   2
     Q(r) pseudized with 0 coefficients 


     PseudoPot. # 3 for Ga read from file:
     /scratch/timrov/WORK_DFPT_plus_U/A_PORTING_2018/A_Gitlab/A_my_Gitlab_08.11.2018/q-e/pseudo/Ga.pbesol-dn-rrkjus_psl.0.2.UPF
     MD5 check sum: 5c203afbed14d3ebde053c3a7130a9e7
     Pseudo is Ultrasoft + core correction, Zval = 13.0
     Generated using "atomic" code by A. Dal Corso v.5.0.2 svn rev. 9415
     Using radial grid of 1205 points,  6 beta functions with: 
                l(1) =   0
                l(2) =   0
                l(3) =   1
                l(4) =   1
                l(5) =   2
                l(6) =   2
     Q(r) pseudized with 0 coefficients 


     atomic species   valence    mass     pseudopotential
        Mn            15.00    54.93800     Mn( 1.00)
        Ni            10.00    58.69300     Ni( 1.00)
        Ga            13.00    69.72300     Ga( 1.00)

     Starting magnetic structure 
     atomic species   magnetization
        Mn           0.500
        Ni           0.500
        Ga           0.000


     Simplified LDA+U calculation (l_max = 2) with parameters (eV):
     atomic species    L          U    alpha       J0     beta
        Mn             2     0.0000   0.0000   0.0000   0.0000
        Ni             2     0.0000   0.0000   0.0000   0.0000



      8 Sym. Ops. (no inversion) found



   Cartesian axes

     site n.     atom                  positions (alat units)
         1           Mn  tau(   1) = (   0.0000000   0.0000000   0.0000000  )
         2           Ni  tau(   2) = (   0.5000000   0.0000000   1.0606602  )
         3           Ni  tau(   3) = (   0.0000000  -0.5000000   1.0606602  )
         4           Ga  tau(   4) = (   0.0000000   0.0000000   0.7071068  )

     number of k points=    36  mv smearing, width (Ry)=  0.0100
                       cart. coord. in units 2pi/alat
        k(    1) = (   0.0000000   0.0000000   0.0000000), wk =   0.0156250
        k(    2) = (   0.5000000  -0.5000000  -0.7071068), wk =   0.0000000
        k(    3) = (  -0.2500000   0.0000000   0.1767767), wk =   0.1250000
        k(    4) = (   0.2500000  -0.5000000  -0.5303301), wk =   0.0000000
        k(    5) = (   0.5000000   0.0000000  -0.3535534), wk =   0.0625000
        k(    6) = (   1.0000000  -0.5000000  -1.0606601), wk =   0.0000000
        k(    7) = (  -0.2500000   0.2500000   0.3535534), wk =   0.0625000
        k(    8) = (   0.2500000  -0.2500000  -0.3535534), wk =   0.0000000
        k(    9) = (   0.5000000   0.2500000  -0.1767767), wk =   0.1250000
        k(   10) = (   1.0000000  -0.2500000  -0.8838835), wk =   0.0000000
        k(   11) = (   0.2500000   0.2500000   0.0000000), wk =   0.0312500
        k(   12) = (   0.7500000  -0.2500000  -0.7071068), wk =   0.0000000
        k(   13) = (   0.5000000  -0.5000000  -0.7071068), wk =   0.0156250
        k(   14) = (   1.0000000  -1.0000000  -1.4142135), wk =   0.0000000
        k(   15) = (   0.0000000   0.0000000   0.3535534), wk =   0.0312500
        k(   16) = (   0.5000000  -0.5000000  -0.3535534), wk =   0.0000000
        k(   17) = (   0.7500000   0.0000000  -0.1767767), wk =   0.1250000
        k(   18) = (   1.2500000  -0.5000000  -0.8838835), wk =   0.0000000
        k(   19) = (   0.5000000   0.0000000   0.0000000), wk =   0.0625000
        k(   20) = (   1.0000000  -0.5000000  -0.7071068), wk =   0.0000000
        k(   21) = (   0.7500000  -0.7500000  -0.7071068), wk =   0.0312500
        k(   22) = (   1.2500000  -1.2500000  -1.4142135), wk =   0.0000000
        k(   23) = (   0.5000000  -0.5000000  -0.3535534), wk =   0.0312500
        k(   24) = (   1.0000000  -1.0000000  -1.0606601), wk =   0.0000000
        k(   25) = (   0.0000000   0.0000000  -0.7071068), wk =   0.0156250
        k(   26) = (   0.5000000  -0.5000000  -1.4142135), wk =   0.0000000
        k(   27) = (  -0.2500000  -0.2500000   0.3535534), wk =   0.0625000
        k(   28) = (   0.2500000  -0.7500000  -0.3535534), wk =   0.0000000
        k(   29) = (   0.5000000  -0.2500000  -0.1767767), wk =   0.1250000
        k(   30) = (   1.0000000  -0.7500000  -0.8838835), wk =   0.0000000
        k(   31) = (   0.2500000  -0.2500000   0.0000000), wk =   0.0312500
        k(   32) = (   0.7500000  -0.7500000  -0.7071068), wk =   0.0000000
        k(   33) = (   0.5000000   0.5000000  -0.7071068), wk =   0.0156250
        k(   34) = (   1.0000000   0.0000000  -1.4142135), wk =   0.0000000
        k(   35) = (   0.7500000   0.7500000  -0.7071068), wk =   0.0312500
        k(   36) = (   1.2500000   0.2500000  -1.4142135), wk =   0.0000000

     Dense  grid:    45239 G-vectors     FFT dimensions: (  50,  50,  50)

     Smooth grid:    16145 G-vectors     FFT dimensions: (  36,  36,  36)

     Estimated max dynamical RAM per process >      26.08 MB

     Estimated total dynamical RAM >     208.67 MB
     Generating pointlists ...

     Check: negative core charge=   -0.000006

     The potential is recalculated from file :
     /scratch/timrov/WORK_DFPT_plus_U/A_PORTING_2018/A_Gitlab/A_my_Gitlab_08.11.2018/q-e/tempdir/HP/Ni2MnGa.save/charge-density

     Number of +U iterations with fixed ns =  0
     Starting occupations:
 --- enter write_ns ---
 LDA+U parameters:
U( 1)     =  0.00000001
alpha( 1) =  0.00000000
U( 2)     =  0.00000001
alpha( 2) =  0.00000000
atom    1   Tr[ns(na)] (up, down, total) =   4.54669  1.04783  5.59452
   spin  1
    eigenvalues: 
  0.887  0.887  0.887  0.943  0.943
    eigenvectors:
  0.000  0.000  0.000  0.000  1.000
  0.267  0.733  0.000  0.000  0.000
  0.733  0.267  0.000  0.000  0.000
  0.000  0.000  1.000  0.000  0.000
  0.000  0.000  0.000  1.000  0.000
    occupations:
  0.943 -0.000 -0.000  0.000  0.000
 -0.000  0.887 -0.000  0.000  0.000
 -0.000 -0.000  0.887  0.000  0.000
  0.000  0.000  0.000  0.887 -0.000
  0.000  0.000  0.000 -0.000  0.943
   spin  2
    eigenvalues: 
  0.122  0.122  0.268  0.268  0.268
    eigenvectors:
  1.000  0.000  0.000  0.000  0.000
  0.000  0.000  0.138  0.862  0.000
  0.000  0.000  0.862  0.138  0.000
  0.000  0.000  0.000  0.000  1.000
  0.000  1.000  0.000  0.000  0.000
    occupations:
  0.122 -0.000 -0.000  0.000  0.000
 -0.000  0.268 -0.000  0.000  0.000
 -0.000 -0.000  0.268  0.000  0.000
  0.000  0.000  0.000  0.268 -0.000
  0.000  0.000  0.000 -0.000  0.122
atomic mag. moment =     3.498857
atom    2   Tr[ns(na)] (up, down, total) =   4.53249  4.28164  8.81413
   spin  1
    eigenvalues: 
  0.896  0.896  0.896  0.922  0.922
    eigenvectors:
  0.000  0.000  0.000  1.000  0.000
  0.256  0.744  0.000  0.000  0.000
  0.744  0.256  0.000  0.000  0.000
  0.000  0.000  1.000  0.000  0.000
  0.000  0.000  0.000  0.000  1.000
    occupations:
  0.922 -0.000 -0.000  0.000  0.000
 -0.000  0.896 -0.000  0.000  0.000
 -0.000 -0.000  0.896  0.000  0.000
  0.000  0.000  0.000  0.896 -0.000
  0.000  0.000  0.000 -0.000  0.922
   spin  2
    eigenvalues: 
  0.836  0.836  0.870  0.870  0.870
    eigenvectors:
  0.000  1.000  0.000  0.000  0.000
  0.000  0.000  0.153  0.847  0.000
  0.000  0.000  0.847  0.153  0.000
  0.000  0.000  0.000  0.000  1.000
  1.000  0.000  0.000  0.000  0.000
    occupations:
  0.836 -0.000 -0.000  0.000  0.000
 -0.000  0.870 -0.000  0.000  0.000
 -0.000 -0.000  0.870  0.000  0.000
  0.000  0.000  0.000  0.870 -0.000
  0.000  0.000  0.000 -0.000  0.836
atomic mag. moment =     0.250851
atom    3   Tr[ns(na)] (up, down, total) =   4.53249  4.28164  8.81413
   spin  1
    eigenvalues: 
  0.896  0.896  0.896  0.922  0.922
    eigenvectors:
  0.000  0.000  0.000  1.000  0.000
  0.158  0.842  0.000  0.000  0.000
  0.842  0.158  0.000  0.000  0.000
  0.000  0.000  1.000  0.000  0.000
  0.000  0.000  0.000  0.000  1.000
    occupations:
  0.922 -0.000 -0.000  0.000  0.000
 -0.000  0.896 -0.000  0.000  0.000
 -0.000 -0.000  0.896  0.000  0.000
  0.000  0.000  0.000  0.896 -0.000
  0.000  0.000  0.000 -0.000  0.922
   spin  2
    eigenvalues: 
  0.836  0.836  0.870  0.870  0.870
    eigenvectors:
  0.000  1.000  0.000  0.000  0.000
  0.000  0.000  0.188  0.812  0.000
  0.000  0.000  0.812  0.188  0.000
  0.000  0.000  0.000  0.000  1.000
  1.000  0.000  0.000  0.000  0.000
    occupations:
  0.836 -0.000 -0.000  0.000  0.000
 -0.000  0.870 -0.000  0.000  0.000
 -0.000 -0.000  0.870  0.000  0.000
  0.000  0.000  0.000  0.870 -0.000
  0.000  0.000  0.000 -0.000  0.836
atomic mag. moment =     0.250851
N of occupied +U levels =   23.222775
 --- exit write_ns ---
 Atomic wfc used for LDA+U Projector are orthogonalized
     Starting wfcs are   37 atomic wfcs

     Band Structure Calculation
     Davidson diagonalization with overlap

     ethr =  1.00E-11,  avg # of iterations = 14.1

     total cpu time spent up to now is       -1.0 secs

     End of band structure calculation

 ------ SPIN UP ------------


          k = 0.0000 0.0000 0.0000 (  1989 PWs)   bands (ev):

   -66.5000 -35.3610 -35.3610 -35.3610  -0.4421  -0.4421  -0.4421  -0.4134
    -0.4134   3.7133  10.4574  10.4574  10.6712  10.6712  10.6712  11.1741
    11.1741  11.1741  13.0424  13.0424  13.0424  13.0689  13.0689  13.1914
    13.1914  18.4395  18.7161  18.7161  18.7161

          k = 0.5000-0.5000-0.7071 (  2044 PWs)   bands (ev):

   -66.4999 -35.3628 -35.3615 -35.3615  -0.4659  -0.4283  -0.4146  -0.4146
    -0.3905   6.7823   8.3532  10.0303  10.4210  11.1646  11.1646  11.5696
    11.9037  11.9037  11.9948  12.6541  12.6541  12.7884  12.9734  13.0188
    13.1641  13.4731  13.4731  13.5956  17.4454

          k =-0.2500 0.0000 0.1768 (  1997 PWs)   bands (ev):

   -66.4999 -35.3619 -35.3611 -35.3611  -0.4435  -0.4361  -0.4361  -0.4064
    -0.4064   4.5416   9.8548  10.2317  10.2317  10.9798  11.0299  11.0299
    11.3464  11.3464  12.5068  12.6559  12.6559  13.0250  13.0250  13.2718
    13.2718  15.2622  18.0310  18.0310  18.1552

          k = 0.2500-0.5000-0.5303 (  2002 PWs)   bands (ev):

   -66.4999 -35.3625 -35.3617 -35.3614  -0.4509  -0.4274  -0.4224  -0.4137
    -0.3949   6.3418   8.5535   9.7187  10.6993  10.7593  11.0385  11.2864
    11.5980  11.9389  12.1378  12.2351  12.6272  12.7708  12.9791  13.1825
    13.2547  13.6648  14.5615  15.1039  17.9079

          k = 0.5000 0.0000-0.3536 (  2006 PWs)   bands (ev):

   -66.4999 -35.3627 -35.3612 -35.3612  -0.4454  -0.4321  -0.4321  -0.3975
    -0.3975   6.2859   7.6813  10.2006  10.2006  11.0165  11.0165  11.0466
    11.7998  11.7998  12.3010  12.3010  12.3717  13.0024  13.0024  13.2115
    13.2115  13.5779  17.8481  18.0339  18.0339

          k = 1.0000-0.5000-1.0607 (  2006 PWs)   bands (ev):

   -66.4999 -35.3627 -35.3612 -35.3612  -0.4454  -0.4321  -0.4321  -0.3975
    -0.3975   6.2859   7.6813  10.2006  10.2006  11.0165  11.0165  11.0466
    11.7998  11.7998  12.3010  12.3010  12.3717  13.0024  13.0024  13.2115
    13.2115  13.5779  17.8481  18.0339  18.0339

          k =-0.2500 0.2500 0.3536 (  2005 PWs)   bands (ev):

   -66.4999 -35.3622 -35.3617 -35.3612  -0.4394  -0.4366  -0.4282  -0.4050
    -0.4019   5.7706   9.0408   9.8772  10.2302  10.7669  10.9865  11.3308
    11.6106  11.7207  12.1689  12.3412  12.4554  12.8005  12.9765  13.1907
    13.4498  14.4232  14.5860  16.5876  18.0589

          k = 0.2500-0.2500-0.3536 (  2005 PWs)   bands (ev):

   -66.4999 -35.3622 -35.3617 -35.3612  -0.4394  -0.4366  -0.4282  -0.4050
    -0.4019   5.7706   9.0408   9.8772  10.2302  10.7669  10.9865  11.3308
    11.6106  11.7207  12.1689  12.3412  12.4554  12.8005  12.9765  13.1907
    13.4498  14.4232  14.5860  16.5876  18.0589

          k = 0.5000 0.2500-0.1768 (  2002 PWs)   bands (ev):

   -66.4999 -35.3625 -35.3617 -35.3614  -0.4509  -0.4274  -0.4224  -0.4137
    -0.3949   6.3418   8.5535   9.7187  10.6993  10.7593  11.0385  11.2864
    11.5980  11.9389  12.1378  12.2351  12.6272  12.7708  12.9791  13.1825
    13.2547  13.6648  14.5615  15.1039  17.9079

          k = 1.0000-0.2500-0.8839 (  1997 PWs)   bands (ev):

   -66.4999 -35.3619 -35.3611 -35.3611  -0.4435  -0.4361  -0.4361  -0.4064
    -0.4064   4.5416   9.8548  10.2317  10.2317  10.9798  11.0299  11.0299
    11.3464  11.3464  12.5068  12.6559  12.6559  13.0250  13.0250  13.2718
    13.2718  15.2622  18.0310  18.0310  18.1552

          k = 0.2500 0.2500 0.0000 (  1996 PWs)   bands (ev):

   -66.4999 -35.3619 -35.3613 -35.3613  -0.4537  -0.4280  -0.4280  -0.4153
    -0.4019   4.8030   9.3149  10.6214  10.8316  10.9517  10.9517  11.0305
    11.4349  11.4349  12.5066  12.5066  12.6794  12.7147  13.1145  13.1775
    13.2386  15.7137  15.8365  15.8365  18.1152

          k = 0.7500-0.2500-0.7071 (  1996 PWs)   bands (ev):

   -66.4999 -35.3619 -35.3613 -35.3613  -0.4537  -0.4280  -0.4280  -0.4153
    -0.4019   4.8030   9.3149  10.6214  10.8316  10.9517  10.9517  11.0305
    11.4349  11.4349  12.5066  12.5066  12.6794  12.7147  13.1145  13.1775
    13.2386  15.7137  15.8365  15.8365  18.1152

          k = 0.5000-0.5000-0.7071 (  2044 PWs)   bands (ev):

   -66.4999 -35.3628 -35.3615 -35.3615  -0.4659  -0.4283  -0.4146  -0.4146
    -0.3905   6.7823   8.3532  10.0303  10.4210  11.1646  11.1646  11.5696
    11.9037  11.9037  11.9948  12.6541  12.6541  12.7884  12.9734  13.0188
    13.1641  13.4731  13.4731  13.5956  17.4454

          k = 1.0000-1.0000-1.4142 (  1989 PWs)   bands (ev):

   -66.5000 -35.3610 -35.3610 -35.3610  -0.4421  -0.4421  -0.4421  -0.4134
    -0.4134   3.7133  10.4574  10.4574  10.6712  10.6712  10.6712  11.1741
    11.1741  11.1741  13.0424  13.0424  13.0424  13.0689  13.0689  13.1914
    13.1914  18.4395  18.7161  18.7161  18.7161

          k = 0.0000 0.0000 0.3536 (  1996 PWs)   bands (ev):

   -66.4999 -35.3619 -35.3613 -35.3613  -0.4537  -0.4280  -0.4280  -0.4153
    -0.4019   4.8030   9.3149  10.6214  10.8316  10.9517  10.9517  11.0305
    11.4349  11.4349  12.5066  12.5066  12.6794  12.7147  13.1145  13.1775
    13.2386  15.7137  15.8365  15.8365  18.1152

          k = 0.5000-0.5000-0.3536 (  1984 PWs)   bands (ev):

   -66.4999 -35.3622 -35.3622 -35.3615  -0.4400  -0.4400  -0.4187  -0.4145
    -0.3943   6.9626   9.1239   9.1239  10.1310  10.9489  11.2172  11.3665
    11.3665  12.0039  12.0039  12.4625  12.5963  12.7769  13.1201  13.1433
    13.1433  13.6184  13.6335  13.6335  20.3200

          k = 0.7500 0.0000-0.1768 (  2002 PWs)   bands (ev):

   -66.4999 -35.3625 -35.3617 -35.3614  -0.4509  -0.4274  -0.4224  -0.4137
    -0.3949   6.3418   8.5535   9.7187  10.6993  10.7593  11.0385  11.2864
    11.5980  11.9389  12.1378  12.2351  12.6272  12.7708  12.9791  13.1825
    13.2547  13.6648  14.5615  15.1039  17.9079

          k = 1.2500-0.5000-0.8839 (  2002 PWs)   bands (ev):

   -66.4999 -35.3625 -35.3617 -35.3614  -0.4509  -0.4274  -0.4224  -0.4137
    -0.3949   6.3418   8.5535   9.7187  10.6993  10.7593  11.0385  11.2864
    11.5980  11.9389  12.1378  12.2351  12.6272  12.7708  12.9791  13.1825
    13.2547  13.6648  14.5615  15.1039  17.9079

          k = 0.5000 0.0000 0.0000 (  2005 PWs)   bands (ev):

   -66.4999 -35.3622 -35.3617 -35.3612  -0.4394  -0.4366  -0.4282  -0.4050
    -0.4019   5.7706   9.0408   9.8772  10.2302  10.7669  10.9865  11.3308
    11.6106  11.7207  12.1689  12.3412  12.4554  12.8005  12.9765  13.1907
    13.4498  14.4232  14.5860  16.5876  18.0589

          k = 1.0000-0.5000-0.7071 (  2005 PWs)   bands (ev):

   -66.4999 -35.3622 -35.3617 -35.3612  -0.4394  -0.4366  -0.4282  -0.4050
    -0.4019   5.7706   9.0408   9.8772  10.2302  10.7669  10.9865  11.3308
    11.6106  11.7207  12.1689  12.3412  12.4554  12.8005  12.9765  13.1907
    13.4498  14.4232  14.5860  16.5876  18.0589

          k = 0.7500-0.7500-0.7071 (  1984 PWs)   bands (ev):

   -66.4999 -35.3622 -35.3622 -35.3615  -0.4400  -0.4400  -0.4187  -0.4145
    -0.3943   6.9626   9.1239   9.1239  10.1310  10.9489  11.2172  11.3665
    11.3665  12.0039  12.0039  12.4625  12.5963  12.7769  13.1201  13.1433
    13.1433  13.6184  13.6335  13.6335  20.3200

          k = 1.2500-1.2500-1.4142 (  1996 PWs)   bands (ev):

   -66.4999 -35.3619 -35.3613 -35.3613  -0.4537  -0.4280  -0.4280  -0.4153
    -0.4019   4.8030   9.3149  10.6214  10.8316  10.9517  10.9517  11.0305
    11.4349  11.4349  12.5066  12.5066  12.6794  12.7147  13.1145  13.1775
    13.2386  15.7137  15.8365  15.8365  18.1152

          k = 0.5000-0.5000-0.3536 (  1984 PWs)   bands (ev):

   -66.4999 -35.3622 -35.3622 -35.3615  -0.4400  -0.4400  -0.4187  -0.4145
    -0.3943   6.9626   9.1239   9.1239  10.1310  10.9489  11.2172  11.3665
    11.3665  12.0039  12.0039  12.4625  12.5963  12.7769  13.1201  13.1433
    13.1433  13.6184  13.6335  13.6335  20.3200

          k = 1.0000-1.0000-1.0607 (  1996 PWs)   bands (ev):

   -66.4999 -35.3619 -35.3613 -35.3613  -0.4537  -0.4280  -0.4280  -0.4153
    -0.4019   4.8030   9.3149  10.6214  10.8316  10.9517  10.9517  11.0305
    11.4349  11.4349  12.5066  12.5066  12.6794  12.7147  13.1145  13.1775
    13.2386  15.7137  15.8365  15.8365  18.1152

          k = 0.0000 0.0000-0.7071 (  2044 PWs)   bands (ev):

   -66.4999 -35.3628 -35.3615 -35.3615  -0.4659  -0.4283  -0.4146  -0.4146
    -0.3905   6.7823   8.3532  10.0303  10.4210  11.1646  11.1646  11.5696
    11.9037  11.9037  11.9948  12.6541  12.6541  12.7884  12.9734  13.0188
    13.1641  13.4731  13.4731  13.5956  17.4454

          k = 0.5000-0.5000-1.4142 (  2044 PWs)   bands (ev):

   -66.4999 -35.3628 -35.3615 -35.3615  -0.4659  -0.4283  -0.4146  -0.4146
    -0.3905   6.7823   8.3532  10.0303  10.4210  11.1646  11.1646  11.5696
    11.9037  11.9037  11.9948  12.6541  12.6541  12.7884  12.9734  13.0188
    13.1641  13.4731  13.4731  13.5956  17.4454

          k =-0.2500-0.2500 0.3536 (  2005 PWs)   bands (ev):

   -66.4999 -35.3622 -35.3617 -35.3612  -0.4394  -0.4366  -0.4282  -0.4050
    -0.4019   5.7706   9.0408   9.8772  10.2302  10.7669  10.9865  11.3308
    11.6106  11.7207  12.1689  12.3412  12.4554  12.8005  12.9765  13.1907
    13.4498  14.4232  14.5860  16.5876  18.0589

          k = 0.2500-0.7500-0.3536 (  2005 PWs)   bands (ev):

   -66.4999 -35.3622 -35.3617 -35.3612  -0.4394  -0.4366  -0.4282  -0.4050
    -0.4019   5.7706   9.0408   9.8772  10.2302  10.7669  10.9865  11.3308
    11.6106  11.7207  12.1689  12.3412  12.4554  12.8005  12.9765  13.1907
    13.4498  14.4232  14.5860  16.5876  18.0589

          k = 0.5000-0.2500-0.1768 (  2002 PWs)   bands (ev):

   -66.4999 -35.3625 -35.3617 -35.3614  -0.4509  -0.4274  -0.4224  -0.4137
    -0.3949   6.3418   8.5535   9.7187  10.6993  10.7593  11.0385  11.2864
    11.5980  11.9389  12.1378  12.2351  12.6272  12.7708  12.9791  13.1825
    13.2547  13.6648  14.5615  15.1039  17.9079

          k = 1.0000-0.7500-0.8839 (  2002 PWs)   bands (ev):

   -66.4999 -35.3625 -35.3617 -35.3614  -0.4509  -0.4274  -0.4224  -0.4137
    -0.3949   6.3418   8.5535   9.7187  10.6993  10.7593  11.0385  11.2864
    11.5980  11.9389  12.1378  12.2351  12.6272  12.7708  12.9791  13.1825
    13.2547  13.6648  14.5615  15.1039  17.9079

          k = 0.2500-0.2500 0.0000 (  1996 PWs)   bands (ev):

   -66.4999 -35.3619 -35.3613 -35.3613  -0.4537  -0.4280  -0.4280  -0.4153
    -0.4019   4.8030   9.3149  10.6214  10.8316  10.9517  10.9517  11.0305
    11.4349  11.4349  12.5066  12.5066  12.6794  12.7147  13.1145  13.1775
    13.2386  15.7137  15.8365  15.8365  18.1152

          k = 0.7500-0.7500-0.7071 (  1984 PWs)   bands (ev):

   -66.4999 -35.3622 -35.3622 -35.3615  -0.4400  -0.4400  -0.4187  -0.4145
    -0.3943   6.9626   9.1239   9.1239  10.1310  10.9489  11.2172  11.3665
    11.3665  12.0039  12.0039  12.4625  12.5963  12.7769  13.1201  13.1433
    13.1433  13.6184  13.6335  13.6335  20.3200

          k = 0.5000 0.5000-0.7071 (  2044 PWs)   bands (ev):

   -66.4999 -35.3628 -35.3615 -35.3615  -0.4659  -0.4283  -0.4146  -0.4146
    -0.3905   6.7823   8.3532  10.0303  10.4210  11.1646  11.1646  11.5696
    11.9037  11.9037  11.9948  12.6541  12.6541  12.7884  12.9734  13.0188
    13.1641  13.4731  13.4731  13.5956  17.4454

          k = 1.0000 0.0000-1.4142 (  2044 PWs)   bands (ev):

   -66.4999 -35.3628 -35.3615 -35.3615  -0.4659  -0.4283  -0.4146  -0.4146
    -0.3905   6.7823   8.3532  10.0303  10.4210  11.1646  11.1646  11.5696
    11.9037  11.9037  11.9948  12.6541  12.6541  12.7884  12.9734  13.0188
    13.1641  13.4731  13.4731  13.5956  17.4454

          k = 0.7500 0.7500-0.7071 (  1984 PWs)   bands (ev):

   -66.4999 -35.3622 -35.3622 -35.3615  -0.4400  -0.4400  -0.4187  -0.4145
    -0.3943   6.9626   9.1239   9.1239  10.1310  10.9489  11.2172  11.3665
    11.3665  12.0039  12.0039  12.4625  12.5963  12.7769  13.1201  13.1433
    13.1433  13.6184  13.6335  13.6335  20.3200

          k = 1.2500 0.2500-1.4142 (  1984 PWs)   bands (ev):

   -66.4999 -35.3622 -35.3622 -35.3615  -0.4400  -0.4400  -0.4187  -0.4145
    -0.3943   6.9626   9.1239   9.1239  10.1310  10.9489  11.2172  11.3665
    11.3665  12.0039  12.0039  12.4625  12.5963  12.7769  13.1201  13.1433
    13.1433  13.6184  13.6335  13.6335  20.3200

 ------ SPIN DOWN ----------


          k = 0.0000 0.0000 0.0000 (  1989 PWs)   bands (ev):

   -62.7248 -31.6802 -31.6802 -31.6802  -0.4584  -0.4584  -0.4584  -0.4263
    -0.4263   3.7819  10.8461  10.8461  10.8461  11.2113  11.2113  12.6263
    12.6263  12.6263  13.4938  13.4938  14.0106  14.0106  14.0106  15.7368
    15.7368  18.7328  18.7328  18.7328  18.7885

          k = 0.5000-0.5000-0.7071 (  2044 PWs)   bands (ev):

   -62.7247 -31.6827 -31.6809 -31.6809  -0.4822  -0.4409  -0.4308  -0.4308
    -0.4037   6.9201   8.4198  10.8350  10.8735  11.7982  12.0029  12.0029
    12.1595  12.1595  12.8472  12.8472  13.0124  13.4654  13.8733  14.3479
    15.1777  15.6047  15.6047  16.1315  17.9859

          k =-0.2500 0.0000 0.1768 (  1997 PWs)   bands (ev):

   -62.7248 -31.6814 -31.6803 -31.6803  -0.4599  -0.4525  -0.4525  -0.4200
    -0.4200   4.6006  10.0493  10.8442  10.8442  11.5539  11.5539  12.4171
    12.4219  12.4219  12.7280  12.9378  12.9378  14.4431  14.4431  15.5382
    15.5382  16.6897  18.3767  18.8022  18.8022

          k = 0.2500-0.5000-0.5303 (  2002 PWs)   bands (ev):

   -62.7247 -31.6822 -31.6811 -31.6807  -0.4673  -0.4436  -0.4387  -0.4272
    -0.4087   6.3870   8.8215  10.2244  11.3123  11.3495  11.7932  12.0321
    12.3372  12.3804  12.5026  12.5283  12.8718  14.1465  14.1836  14.9475
    15.5201  15.6979  16.3541  16.3556  18.5882

          k = 0.5000 0.0000-0.3536 (  2006 PWs)   bands (ev):

   -62.7247 -31.6826 -31.6804 -31.6804  -0.4620  -0.4484  -0.4484  -0.4118
    -0.4118   6.2612   7.9567  10.9530  10.9530  11.9304  12.0064  12.0064
    12.0464  12.0464  12.5316  12.5316  12.5696  14.5395  14.5395  15.6193
    15.6591  15.6591  17.8951  18.7598  18.7598

          k = 1.0000-0.5000-1.0607 (  2006 PWs)   bands (ev):

   -62.7247 -31.6826 -31.6804 -31.6804  -0.4620  -0.4484  -0.4484  -0.4118
    -0.4118   6.2612   7.9567  10.9530  10.9530  11.9304  12.0064  12.0064
    12.0464  12.0464  12.5316  12.5316  12.5696  14.5395  14.5395  15.6193
    15.6591  15.6591  17.8951  18.7598  18.7598

          k =-0.2500 0.2500 0.3536 (  2005 PWs)   bands (ev):

   -62.7247 -31.6819 -31.6811 -31.6804  -0.4558  -0.4530  -0.4446  -0.4184
    -0.4160   5.8135   9.3839  10.2309  10.9417  11.4164  11.9787  12.0236
    12.1218  12.2928  12.6396  12.6761  12.8814  13.7956  14.8737  15.2631
    15.5495  16.0242  16.2789  17.5914  18.4404

          k = 0.2500-0.2500-0.3536 (  2005 PWs)   bands (ev):

   -62.7247 -31.6819 -31.6811 -31.6804  -0.4558  -0.4530  -0.4446  -0.4184
    -0.4160   5.8135   9.3839  10.2309  10.9417  11.4164  11.9787  12.0236
    12.1218  12.2928  12.6396  12.6761  12.8814  13.7956  14.8737  15.2631
    15.5495  16.0242  16.2789  17.5914  18.4404

          k = 0.5000 0.2500-0.1768 (  2002 PWs)   bands (ev):

   -62.7247 -31.6822 -31.6811 -31.6807  -0.4673  -0.4436  -0.4387  -0.4272
    -0.4087   6.3870   8.8215  10.2244  11.3123  11.3495  11.7932  12.0321
    12.3372  12.3804  12.5026  12.5283  12.8718  14.1465  14.1836  14.9475
    15.5201  15.6979  16.3541  16.3556  18.5882

          k = 1.0000-0.2500-0.8839 (  1997 PWs)   bands (ev):

   -62.7248 -31.6814 -31.6803 -31.6803  -0.4599  -0.4525  -0.4525  -0.4200
    -0.4200   4.6006  10.0493  10.8442  10.8442  11.5539  11.5539  12.4171
    12.4219  12.4219  12.7280  12.9378  12.9378  14.4431  14.4431  15.5382
    15.5382  16.6897  18.3767  18.8022  18.8022

          k = 0.2500 0.2500 0.0000 (  1996 PWs)   bands (ev):

   -62.7248 -31.6814 -31.6805 -31.6805  -0.4700  -0.4443  -0.4443  -0.4289
    -0.4149   4.8618   9.7750  11.2180  11.2180  11.4426  11.4802  11.7505
    12.5965  12.5965  12.9557  13.2672  13.2672  13.4794  14.3763  14.9181
    15.4835  16.8775  17.0628  17.0628  18.6834

          k = 0.7500-0.2500-0.7071 (  1996 PWs)   bands (ev):

   -62.7248 -31.6814 -31.6805 -31.6805  -0.4700  -0.4443  -0.4443  -0.4289
    -0.4149   4.8618   9.7750  11.2180  11.2180  11.4426  11.4802  11.7505
    12.5965  12.5965  12.9557  13.2672  13.2672  13.4794  14.3763  14.9181
    15.4835  16.8775  17.0628  17.0628  18.6834

          k = 0.5000-0.5000-0.7071 (  2044 PWs)   bands (ev):

   -62.7247 -31.6827 -31.6809 -31.6809  -0.4822  -0.4409  -0.4308  -0.4308
    -0.4037   6.9201   8.4198  10.8350  10.8735  11.7982  12.0029  12.0029
    12.1595  12.1595  12.8472  12.8472  13.0124  13.4654  13.8733  14.3479
    15.1777  15.6047  15.6047  16.1315  17.9859

          k = 1.0000-1.0000-1.4142 (  1989 PWs)   bands (ev):

   -62.7248 -31.6802 -31.6802 -31.6802  -0.4584  -0.4584  -0.4584  -0.4263
    -0.4263   3.7819  10.8461  10.8461  10.8461  11.2113  11.2113  12.6263
    12.6263  12.6263  13.4938  13.4938  14.0106  14.0106  14.0106  15.7368
    15.7368  18.7328  18.7328  18.7328  18.7885

          k = 0.0000 0.0000 0.3536 (  1996 PWs)   bands (ev):

   -62.7248 -31.6814 -31.6805 -31.6805  -0.4700  -0.4443  -0.4443  -0.4289
    -0.4149   4.8618   9.7750  11.2180  11.2180  11.4426  11.4802  11.7505
    12.5965  12.5965  12.9557  13.2672  13.2672  13.4794  14.3763  14.9181
    15.4835  16.8775  17.0628  17.0628  18.6834

          k = 0.5000-0.5000-0.3536 (  1984 PWs)   bands (ev):

   -62.7247 -31.6818 -31.6818 -31.6809  -0.4564  -0.4564  -0.4314  -0.4307
    -0.4082   7.0579   9.3690   9.3690  10.5835  11.6619  11.9314  11.9314
    12.2976  12.3482  12.3482  12.6967  12.8111  13.8462  13.8462  15.2403
    15.2403  15.6209  15.6845  15.9418  20.6450

          k = 0.7500 0.0000-0.1768 (  2002 PWs)   bands (ev):

   -62.7247 -31.6822 -31.6811 -31.6807  -0.4673  -0.4436  -0.4387  -0.4272
    -0.4087   6.3870   8.8215  10.2244  11.3123  11.3495  11.7932  12.0321
    12.3372  12.3804  12.5026  12.5283  12.8718  14.1465  14.1836  14.9475
    15.5201  15.6979  16.3541  16.3556  18.5882

          k = 1.2500-0.5000-0.8839 (  2002 PWs)   bands (ev):

   -62.7247 -31.6822 -31.6811 -31.6807  -0.4673  -0.4436  -0.4387  -0.4272
    -0.4087   6.3870   8.8215  10.2244  11.3123  11.3495  11.7932  12.0321
    12.3372  12.3804  12.5026  12.5283  12.8718  14.1465  14.1836  14.9475
    15.5201  15.6979  16.3541  16.3556  18.5882

          k = 0.5000 0.0000 0.0000 (  2005 PWs)   bands (ev):

   -62.7247 -31.6819 -31.6811 -31.6804  -0.4558  -0.4530  -0.4446  -0.4184
    -0.4160   5.8135   9.3839  10.2309  10.9417  11.4164  11.9787  12.0236
    12.1218  12.2928  12.6396  12.6761  12.8814  13.7956  14.8737  15.2631
    15.5495  16.0242  16.2789  17.5914  18.4404

          k = 1.0000-0.5000-0.7071 (  2005 PWs)   bands (ev):

   -62.7247 -31.6819 -31.6811 -31.6804  -0.4558  -0.4530  -0.4446  -0.4184
    -0.4160   5.8135   9.3839  10.2309  10.9417  11.4164  11.9787  12.0236
    12.1218  12.2928  12.6396  12.6761  12.8814  13.7956  14.8737  15.2631
    15.5495  16.0242  16.2789  17.5914  18.4404

          k = 0.7500-0.7500-0.7071 (  1984 PWs)   bands (ev):

   -62.7247 -31.6818 -31.6818 -31.6809  -0.4564  -0.4564  -0.4314  -0.4307
    -0.4082   7.0579   9.3690   9.3690  10.5835  11.6619  11.9314  11.9314
    12.2976  12.3482  12.3482  12.6967  12.8111  13.8462  13.8462  15.2403
    15.2403  15.6209  15.6845  15.9418  20.6450

          k = 1.2500-1.2500-1.4142 (  1996 PWs)   bands (ev):

   -62.7248 -31.6814 -31.6805 -31.6805  -0.4700  -0.4443  -0.4443  -0.4289
    -0.4149   4.8618   9.7750  11.2180  11.2180  11.4426  11.4802  11.7505
    12.5965  12.5965  12.9557  13.2672  13.2672  13.4794  14.3763  14.9181
    15.4835  16.8775  17.0628  17.0628  18.6834

          k = 0.5000-0.5000-0.3536 (  1984 PWs)   bands (ev):

   -62.7247 -31.6818 -31.6818 -31.6809  -0.4564  -0.4564  -0.4314  -0.4307
    -0.4082   7.0579   9.3690   9.3690  10.5835  11.6619  11.9314  11.9314
    12.2976  12.3482  12.3482  12.6967  12.8111  13.8462  13.8462  15.2403
    15.2403  15.6209  15.6845  15.9418  20.6450

          k = 1.0000-1.0000-1.0607 (  1996 PWs)   bands (ev):

   -62.7248 -31.6814 -31.6805 -31.6805  -0.4700  -0.4443  -0.4443  -0.4289
    -0.4149   4.8618   9.7750  11.2180  11.2180  11.4426  11.4802  11.7505
    12.5965  12.5965  12.9557  13.2672  13.2672  13.4794  14.3763  14.9181
    15.4835  16.8775  17.0628  17.0628  18.6834

          k = 0.0000 0.0000-0.7071 (  2044 PWs)   bands (ev):

   -62.7247 -31.6827 -31.6809 -31.6809  -0.4822  -0.4409  -0.4308  -0.4308
    -0.4037   6.9201   8.4198  10.8350  10.8735  11.7982  12.0029  12.0029
    12.1595  12.1595  12.8472  12.8472  13.0124  13.4654  13.8733  14.3479
    15.1777  15.6047  15.6047  16.1315  17.9859

          k = 0.5000-0.5000-1.4142 (  2044 PWs)   bands (ev):

   -62.7247 -31.6827 -31.6809 -31.6809  -0.4822  -0.4409  -0.4308  -0.4308
    -0.4037   6.9201   8.4198  10.8350  10.8735  11.7982  12.0029  12.0029
    12.1595  12.1595  12.8472  12.8472  13.0124  13.4654  13.8733  14.3479
    15.1777  15.6047  15.6047  16.1315  17.9859

          k =-0.2500-0.2500 0.3536 (  2005 PWs)   bands (ev):

   -62.7247 -31.6819 -31.6811 -31.6804  -0.4558  -0.4530  -0.4446  -0.4184
    -0.4160   5.8135   9.3839  10.2309  10.9417  11.4164  11.9787  12.0236
    12.1218  12.2928  12.6396  12.6761  12.8814  13.7956  14.8737  15.2631
    15.5495  16.0242  16.2789  17.5914  18.4404

          k = 0.2500-0.7500-0.3536 (  2005 PWs)   bands (ev):

   -62.7247 -31.6819 -31.6811 -31.6804  -0.4558  -0.4530  -0.4446  -0.4184
    -0.4160   5.8135   9.3839  10.2309  10.9417  11.4164  11.9787  12.0236
    12.1218  12.2928  12.6396  12.6761  12.8814  13.7956  14.8737  15.2631
    15.5495  16.0242  16.2789  17.5914  18.4404

          k = 0.5000-0.2500-0.1768 (  2002 PWs)   bands (ev):

   -62.7247 -31.6822 -31.6811 -31.6807  -0.4673  -0.4436  -0.4387  -0.4272
    -0.4087   6.3870   8.8215  10.2244  11.3123  11.3495  11.7932  12.0321
    12.3372  12.3804  12.5026  12.5283  12.8718  14.1465  14.1836  14.9475
    15.5201  15.6979  16.3541  16.3556  18.5882

          k = 1.0000-0.7500-0.8839 (  2002 PWs)   bands (ev):

   -62.7247 -31.6822 -31.6811 -31.6807  -0.4673  -0.4436  -0.4387  -0.4272
    -0.4087   6.3870   8.8215  10.2244  11.3123  11.3495  11.7932  12.0321
    12.3372  12.3804  12.5026  12.5283  12.8718  14.1465  14.1836  14.9475
    15.5201  15.6979  16.3541  16.3556  18.5882

          k = 0.2500-0.2500 0.0000 (  1996 PWs)   bands (ev):

   -62.7248 -31.6814 -31.6805 -31.6805  -0.4700  -0.4443  -0.4443  -0.4289
    -0.4149   4.8618   9.7750  11.2180  11.2180  11.4426  11.4802  11.7505
    12.5965  12.5965  12.9557  13.2672  13.2672  13.4794  14.3763  14.9181
    15.4835  16.8775  17.0628  17.0628  18.6834

          k = 0.7500-0.7500-0.7071 (  1984 PWs)   bands (ev):

   -62.7247 -31.6818 -31.6818 -31.6809  -0.4564  -0.4564  -0.4314  -0.4307
    -0.4082   7.0579   9.3690   9.3690  10.5835  11.6619  11.9314  11.9314
    12.2976  12.3482  12.3482  12.6967  12.8111  13.8462  13.8462  15.2403
    15.2403  15.6209  15.6845  15.9418  20.6450

          k = 0.5000 0.5000-0.7071 (  2044 PWs)   bands (ev):

   -62.7247 -31.6827 -31.6809 -31.6809  -0.4822  -0.4409  -0.4308  -0.4308
    -0.4037   6.9201   8.4198  10.8350  10.8735  11.7982  12.0029  12.0029
    12.1595  12.1595  12.8472  12.8472  13.0124  13.4654  13.8733  14.3479
    15.1777  15.6047  15.6047  16.1315  17.9859

          k = 1.0000 0.0000-1.4142 (  2044 PWs)   bands (ev):

   -62.7247 -31.6827 -31.6809 -31.6809  -0.4822  -0.4409  -0.4308  -0.4308
    -0.4037   6.9201   8.4198  10.8350  10.8735  11.7982  12.0029  12.0029
    12.1595  12.1595  12.8472  12.8472  13.0124  13.4654  13.8733  14.3479
    15.1777  15.6047  15.6047  16.1315  17.9859

          k = 0.7500 0.7500-0.7071 (  1984 PWs)   bands (ev):

   -62.7247 -31.6818 -31.6818 -31.6809  -0.4564  -0.4564  -0.4314  -0.4307
    -0.4082   7.0579   9.3690   9.3690  10.5835  11.6619  11.9314  11.9314
    12.2976  12.3482  12.3482  12.6967  12.8111  13.8462  13.8462  15.2403
    15.2403  15.6209  15.6845  15.9418  20.6450

          k = 1.2500 0.2500-1.4142 (  1984 PWs)   bands (ev):

   -62.7247 -31.6818 -31.6818 -31.6809  -0.4564  -0.4564  -0.4314  -0.4307
    -0.4082   7.0579   9.3690   9.3690  10.5835  11.6619  11.9314  11.9314
    12.2976  12.3482  12.3482  12.6967  12.8111  13.8462  13.8462  15.2403
    15.2403  15.6209  15.6845  15.9418  20.6450

     the Fermi energy is    14.2239 ev

     Writing output data file Ni2MnGa.save/
     Done!

                   WRITING LINEAR-RESPONSE SUMMARY:


     Number of symmetries in the small group of q, nsymq =  4
      + the symmetry q -> -q+G 

     Symmetry matrices (and vectors of fractional translations if f/=0):

     isym =  1     identity                                     

     cryst.   s( 1) = (     1          0          0      )
                      (     0          1          0      )
                      (     0          0          1      )

     cart.    s( 1) = (  1.0000000  0.0000000  0.0000000 )
                      (  0.0000000  1.0000000  0.0000000 )
                      (  0.0000000  0.0000000  1.0000000 )


     isym =  2     180 deg rotation - cart. axis [0,0,1]        

     cryst.   s( 2) = (    -1          1          1      )
                      (     0          0          1      )
                      (     0          1          0      )

     cart.    s( 2) = ( -1.0000000  0.0000000  0.0000000 )
                      (  0.0000000 -1.0000000  0.0000000 )
                      (  0.0000000  0.0000000  1.0000000 )


     isym =  3     180 deg rotation - cart. axis [1,1,0]        

     cryst.   s( 3) = (    -1          0          0      )
                      (     0          0         -1      )
                      (     0         -1          0      )

     cart.    s( 3) = (  0.0000000  1.0000000  0.0000000 )
                      (  1.0000000  0.0000000  0.0000000 )
                      (  0.0000000  0.0000000 -1.0000000 )


     isym =  4     180 deg rotation - cart. axis [1,-1,0]       

     cryst.   s( 4) = (     1         -1         -1      )
                      (     0         -1          0      )
                      (     0          0         -1      )

     cart.    s( 4) = (  0.0000000 -1.0000000  0.0000000 )
                      ( -1.0000000  0.0000000  0.0000000 )
                      (  0.0000000  0.0000000 -1.0000000 )


     This transformation sends q -> -q+G

     isym =  5     identity                                     

     cryst.   s( 5) = (     1          0          0      )
                      (     0          1          0      )
                      (     0          0          1      )

     cart.    s( 5) = (  1.0000000  0.0000000  0.0000000 )
                      (  0.0000000  1.0000000  0.0000000 )
                      (  0.0000000  0.0000000  1.0000000 )


     G cutoff =  616.4381  (   5656 G-vectors)     FFT grid: ( 50, 50, 50)
     G cutoff =  308.2190  (   2019 G-vectors)  smooth grid: ( 36, 36, 36)

     Number of k (and k+q if q/=0) points =    72  mv smearing, width (Ry) =  0.0100

                       cart. coord. (in units 2pi/alat)
        k (    1) = (   0.0000000   0.0000000   0.0000000), wk = 0.0156250
        k (    2) = (   0.5000000  -0.5000000  -0.7071068), wk = 0.0000000
        k (    3) = (  -0.2500000   0.0000000   0.1767767), wk = 0.1250000
        k (    4) = (   0.2500000  -0.5000000  -0.5303301), wk = 0.0000000
        k (    5) = (   0.5000000   0.0000000  -0.3535534), wk = 0.0625000
        k (    6) = (   1.0000000  -0.5000000  -1.0606601), wk = 0.0000000
        k (    7) = (  -0.2500000   0.2500000   0.3535534), wk = 0.0625000
        k (    8) = (   0.2500000  -0.2500000  -0.3535534), wk = 0.0000000
        k (    9) = (   0.5000000   0.2500000  -0.1767767), wk = 0.1250000
        k (   10) = (   1.0000000  -0.2500000  -0.8838835), wk = 0.0000000
        k (   11) = (   0.2500000   0.2500000   0.0000000), wk = 0.0312500
        k (   12) = (   0.7500000  -0.2500000  -0.7071068), wk = 0.0000000
        k (   13) = (   0.5000000  -0.5000000  -0.7071068), wk = 0.0156250
        k (   14) = (   1.0000000  -1.0000000  -1.4142135), wk = 0.0000000
        k (   15) = (   0.0000000   0.0000000   0.3535534), wk = 0.0312500
        k (   16) = (   0.5000000  -0.5000000  -0.3535534), wk = 0.0000000
        k (   17) = (   0.7500000   0.0000000  -0.1767767), wk = 0.1250000
        k (   18) = (   1.2500000  -0.5000000  -0.8838835), wk = 0.0000000
        k (   19) = (   0.5000000   0.0000000   0.0000000), wk = 0.0625000
        k (   20) = (   1.0000000  -0.5000000  -0.7071068), wk = 0.0000000
        k (   21) = (   0.7500000  -0.7500000  -0.7071068), wk = 0.0312500
        k (   22) = (   1.2500000  -1.2500000  -1.4142135), wk = 0.0000000
        k (   23) = (   0.5000000  -0.5000000  -0.3535534), wk = 0.0312500
        k (   24) = (   1.0000000  -1.0000000  -1.0606601), wk = 0.0000000
        k (   25) = (   0.0000000   0.0000000  -0.7071068), wk = 0.0156250
        k (   26) = (   0.5000000  -0.5000000  -1.4142135), wk = 0.0000000
        k (   27) = (  -0.2500000  -0.2500000   0.3535534), wk = 0.0625000
        k (   28) = (   0.2500000  -0.7500000  -0.3535534), wk = 0.0000000
        k (   29) = (   0.5000000  -0.2500000  -0.1767767), wk = 0.1250000
        k (   30) = (   1.0000000  -0.7500000  -0.8838835), wk = 0.0000000
        k (   31) = (   0.2500000  -0.2500000   0.0000000), wk = 0.0312500
        k (   32) = (   0.7500000  -0.7500000  -0.7071068), wk = 0.0000000
        k (   33) = (   0.5000000   0.5000000  -0.7071068), wk = 0.0156250
        k (   34) = (   1.0000000   0.0000000  -1.4142135), wk = 0.0000000
        k (   35) = (   0.7500000   0.7500000  -0.7071068), wk = 0.0312500
        k (   36) = (   1.2500000   0.2500000  -1.4142135), wk = 0.0000000
        k (   37) = (   0.0000000   0.0000000   0.0000000), wk = 0.0156250
        k (   38) = (   0.5000000  -0.5000000  -0.7071068), wk = 0.0000000
        k (   39) = (  -0.2500000   0.0000000   0.1767767), wk = 0.1250000
        k (   40) = (   0.2500000  -0.5000000  -0.5303301), wk = 0.0000000
        k (   41) = (   0.5000000   0.0000000  -0.3535534), wk = 0.0625000
        k (   42) = (   1.0000000  -0.5000000  -1.0606601), wk = 0.0000000
        k (   43) = (  -0.2500000   0.2500000   0.3535534), wk = 0.0625000
        k (   44) = (   0.2500000  -0.2500000  -0.3535534), wk = 0.0000000
        k (   45) = (   0.5000000   0.2500000  -0.1767767), wk = 0.1250000
        k (   46) = (   1.0000000  -0.2500000  -0.8838835), wk = 0.0000000
        k (   47) = (   0.2500000   0.2500000   0.0000000), wk = 0.0312500
        k (   48) = (   0.7500000  -0.2500000  -0.7071068), wk = 0.0000000
        k (   49) = (   0.5000000  -0.5000000  -0.7071068), wk = 0.0156250
        k (   50) = (   1.0000000  -1.0000000  -1.4142135), wk = 0.0000000
        k (   51) = (   0.0000000   0.0000000   0.3535534), wk = 0.0312500
        k (   52) = (   0.5000000  -0.5000000  -0.3535534), wk = 0.0000000
        k (   53) = (   0.7500000   0.0000000  -0.1767767), wk = 0.1250000
        k (   54) = (   1.2500000  -0.5000000  -0.8838835), wk = 0.0000000
        k (   55) = (   0.5000000   0.0000000   0.0000000), wk = 0.0625000
        k (   56) = (   1.0000000  -0.5000000  -0.7071068), wk = 0.0000000
        k (   57) = (   0.7500000  -0.7500000  -0.7071068), wk = 0.0312500
        k (   58) = (   1.2500000  -1.2500000  -1.4142135), wk = 0.0000000
        k (   59) = (   0.5000000  -0.5000000  -0.3535534), wk = 0.0312500
        k (   60) = (   1.0000000  -1.0000000  -1.0606601), wk = 0.0000000
        k (   61) = (   0.0000000   0.0000000  -0.7071068), wk = 0.0156250
        k (   62) = (   0.5000000  -0.5000000  -1.4142135), wk = 0.0000000
        k (   63) = (  -0.2500000  -0.2500000   0.3535534), wk = 0.0625000
        k (   64) = (   0.2500000  -0.7500000  -0.3535534), wk = 0.0000000
        k (   65) = (   0.5000000  -0.2500000  -0.1767767), wk = 0.1250000
        k (   66) = (   1.0000000  -0.7500000  -0.8838835), wk = 0.0000000
        k (   67) = (   0.2500000  -0.2500000   0.0000000), wk = 0.0312500
        k (   68) = (   0.7500000  -0.7500000  -0.7071068), wk = 0.0000000
        k (   69) = (   0.5000000   0.5000000  -0.7071068), wk = 0.0156250
        k (   70) = (   1.0000000   0.0000000  -1.4142135), wk = 0.0000000
        k (   71) = (   0.7500000   0.7500000  -0.7071068), wk = 0.0312500
        k (   72) = (   1.2500000   0.2500000  -1.4142135), wk = 0.0000000

                       cryst. coord.
        k (    1) = (   0.0000000   0.0000000   0.0000000), wk = 0.0156250
        k (    2) = (   0.0000000  -0.5000000  -0.5000000), wk = 0.0000000
        k (    3) = (   0.0000000   0.0000000   0.2500000), wk = 0.1250000
        k (    4) = (   0.0000000  -0.5000000  -0.2500000), wk = 0.0000000
        k (    5) = (   0.0000000   0.0000000  -0.5000000), wk = 0.0625000
        k (    6) = (   0.0000000  -0.5000000  -1.0000000), wk = 0.0000000
        k (    7) = (   0.0000000   0.2500000   0.2500000), wk = 0.0625000
        k (    8) = (   0.0000000  -0.2500000  -0.2500000), wk = 0.0000000
        k (    9) = (   0.0000000   0.2500000  -0.5000000), wk = 0.1250000
        k (   10) = (   0.0000000  -0.2500000  -1.0000000), wk = 0.0000000
        k (   11) = (   0.0000000   0.2500000  -0.2500000), wk = 0.0312500
        k (   12) = (   0.0000000  -0.2500000  -0.7500000), wk = 0.0000000
        k (   13) = (   0.0000000  -0.5000000  -0.5000000), wk = 0.0156250
        k (   14) = (   0.0000000  -1.0000000  -1.0000000), wk = 0.0000000
        k (   15) = (   0.2500000   0.2500000   0.2500000), wk = 0.0312500
        k (   16) = (   0.2500000  -0.2500000  -0.2500000), wk = 0.0000000
        k (   17) = (   0.2500000   0.2500000  -0.5000000), wk = 0.1250000
        k (   18) = (   0.2500000  -0.2500000  -1.0000000), wk = 0.0000000
        k (   19) = (   0.2500000   0.2500000  -0.2500000), wk = 0.0625000
        k (   20) = (   0.2500000  -0.2500000  -0.7500000), wk = 0.0000000
        k (   21) = (   0.2500000  -0.5000000  -0.5000000), wk = 0.0312500
        k (   22) = (   0.2500000  -1.0000000  -1.0000000), wk = 0.0000000
        k (   23) = (   0.2500000  -0.2500000  -0.2500000), wk = 0.0312500
        k (   24) = (   0.2500000  -0.7500000  -0.7500000), wk = 0.0000000
        k (   25) = (  -0.5000000  -0.5000000  -0.5000000), wk = 0.0156250
        k (   26) = (  -0.5000000  -1.0000000  -1.0000000), wk = 0.0000000
        k (   27) = (   0.2500000   0.0000000   0.5000000), wk = 0.0625000
        k (   28) = (   0.2500000  -0.5000000   0.0000000), wk = 0.0000000
        k (   29) = (   0.2500000   0.0000000  -0.2500000), wk = 0.1250000
        k (   30) = (   0.2500000  -0.5000000  -0.7500000), wk = 0.0000000
        k (   31) = (   0.2500000   0.0000000   0.0000000), wk = 0.0312500
        k (   32) = (   0.2500000  -0.5000000  -0.5000000), wk = 0.0000000
        k (   33) = (  -0.5000000   0.0000000  -1.0000000), wk = 0.0156250
        k (   34) = (  -0.5000000  -0.5000000  -1.5000000), wk = 0.0000000
        k (   35) = (  -0.5000000   0.2500000  -1.2500000), wk = 0.0312500
        k (   36) = (  -0.5000000  -0.2500000  -1.7500000), wk = 0.0000000
        k (   37) = (   0.0000000   0.0000000   0.0000000), wk = 0.0156250
        k (   38) = (   0.0000000  -0.5000000  -0.5000000), wk = 0.0000000
        k (   39) = (   0.0000000   0.0000000   0.2500000), wk = 0.1250000
        k (   40) = (   0.0000000  -0.5000000  -0.2500000), wk = 0.0000000
        k (   41) = (   0.0000000   0.0000000  -0.5000000), wk = 0.0625000
        k (   42) = (   0.0000000  -0.5000000  -1.0000000), wk = 0.0000000
        k (   43) = (   0.0000000   0.2500000   0.2500000), wk = 0.0625000
        k (   44) = (   0.0000000  -0.2500000  -0.2500000), wk = 0.0000000
        k (   45) = (   0.0000000   0.2500000  -0.5000000), wk = 0.1250000
        k (   46) = (   0.0000000  -0.2500000  -1.0000000), wk = 0.0000000
        k (   47) = (   0.0000000   0.2500000  -0.2500000), wk = 0.0312500
        k (   48) = (   0.0000000  -0.2500000  -0.7500000), wk = 0.0000000
        k (   49) = (   0.0000000  -0.5000000  -0.5000000), wk = 0.0156250
        k (   50) = (   0.0000000  -1.0000000  -1.0000000), wk = 0.0000000
        k (   51) = (   0.2500000   0.2500000   0.2500000), wk = 0.0312500
        k (   52) = (   0.2500000  -0.2500000  -0.2500000), wk = 0.0000000
        k (   53) = (   0.2500000   0.2500000  -0.5000000), wk = 0.1250000
        k (   54) = (   0.2500000  -0.2500000  -1.0000000), wk = 0.0000000
        k (   55) = (   0.2500000   0.2500000  -0.2500000), wk = 0.0625000
        k (   56) = (   0.2500000  -0.2500000  -0.7500000), wk = 0.0000000
        k (   57) = (   0.2500000  -0.5000000  -0.5000000), wk = 0.0312500
        k (   58) = (   0.2500000  -1.0000000  -1.0000000), wk = 0.0000000
        k (   59) = (   0.2500000  -0.2500000  -0.2500000), wk = 0.0312500
        k (   60) = (   0.2500000  -0.7500000  -0.7500000), wk = 0.0000000
        k (   61) = (  -0.5000000  -0.5000000  -0.5000000), wk = 0.0156250
        k (   62) = (  -0.5000000  -1.0000000  -1.0000000), wk = 0.0000000
        k (   63) = (   0.2500000   0.0000000   0.5000000), wk = 0.0625000
        k (   64) = (   0.2500000  -0.5000000   0.0000000), wk = 0.0000000
        k (   65) = (   0.2500000   0.0000000  -0.2500000), wk = 0.1250000
        k (   66) = (   0.2500000  -0.5000000  -0.7500000), wk = 0.0000000
        k (   67) = (   0.2500000   0.0000000   0.0000000), wk = 0.0312500
        k (   68) = (   0.2500000  -0.5000000  -0.5000000), wk = 0.0000000
        k (   69) = (  -0.5000000   0.0000000  -1.0000000), wk = 0.0156250
        k (   70) = (  -0.5000000  -0.5000000  -1.5000000), wk = 0.0000000
        k (   71) = (  -0.5000000   0.2500000  -1.2500000), wk = 0.0312500
        k (   72) = (  -0.5000000  -0.2500000  -1.7500000), wk = 0.0000000

     Atomic wfc used for the DFT+U projector are orthogonalized

     Total time spent up to now is:
     HP           :     11.98s CPU     12.34s WALL

      =--------------------------------------------=
             START SOLVING THE LINEAR SYSTEM
      =--------------------------------------------=

      atom #  2   q point #   3   iter #   1
      chi:   1  -0.0000000000
      chi:   2  -0.9020312982
      chi:   3   0.0066963499
      Average number of iter. to solve lin. system:   50.6
      Total CPU time :    23.3 s

      atom #  2   q point #   3   iter #   2
      chi:   1   0.0000000000   residue:    0.0000000000
      chi:   2   4.6266294328   residue:    5.5286607310
      chi:   3  -0.5523552699   residue:    0.5590516198
      Average number of iter. to solve lin. system:   22.9
      Total CPU time :    28.9 s

      atom #  2   q point #   3   iter #   3
      chi:   1   0.0000000000   residue:    0.0000000000
      chi:   2   0.0864507171   residue:    4.5401787157
      chi:   3   0.3825076356   residue:    0.9348629055
      Average number of iter. to solve lin. system:   19.1
      Total CPU time :    33.6 s

      atom #  2   q point #   3   iter #   4
      chi:   1  -0.0000000000   residue:    0.0000000000
      chi:   2  -0.1078567092   residue:    0.1943074263
      chi:   3  -0.1038327909   residue:    0.4863404266
      Average number of iter. to solve lin. system:   20.5
      Total CPU time :    38.7 s

      atom #  2   q point #   3   iter #   5
      chi:   1  -0.0000000000   residue:    0.0000000000
      chi:   2  -0.1100809139   residue:    0.0022242047
      chi:   3  -0.0084426935   residue:    0.0953900974
      Average number of iter. to solve lin. system:   19.7
      Total CPU time :    43.6 s

      atom #  2   q point #   3   iter #   6
      chi:   1  -0.0000000000   residue:    0.0000000000
      chi:   2  -0.1084306370   residue:    0.0016502769
      chi:   3  -0.0022512197   residue:    0.0061914738
      Average number of iter. to solve lin. system:   21.7
      Total CPU time :    49.5 s

      atom #  2   q point #   3   iter #   7
      chi:   1  -0.0000000000   residue:    0.0000000000
      chi:   2  -0.1042548804   residue:    0.0041757566
      chi:   3  -0.0025964484   residue:    0.0003452288
      Average number of iter. to solve lin. system:   20.7
      Total CPU time :    54.7 s

      atom #  2   q point #   3   iter #   8
      chi:   1  -0.0000000000   residue:    0.0000000000
      chi:   2  -0.1046442237   residue:    0.0003893432
      chi:   3  -0.0034009642   residue:    0.0008045158
      Average number of iter. to solve lin. system:   23.0
      Total CPU time :    60.3 s

      atom #  2   q point #   3   iter #   9
      chi:   1  -0.0000000000   residue:    0.0000000000
      chi:   2  -0.1048542444   residue:    0.0002100207
      chi:   3  -0.0038248671   residue:    0.0004239029
      Average number of iter. to solve lin. system:   24.0
      Total CPU time :    66.0 s

      atom #  2   q point #   3   iter #  10
      chi:   1  -0.0000000000   residue:    0.0000000000
      chi:   2  -0.1045765760   residue:    0.0002776683
      chi:   3  -0.0034749388   residue:    0.0003499284
      Average number of iter. to solve lin. system:   23.1
      Total CPU time :    71.6 s

      atom #  2   q point #   3   iter #  11
      chi:   1  -0.0000000000   residue:    0.0000000000
      chi:   2  -0.1045134034   residue:    0.0000631726
      chi:   3  -0.0034349808   residue:    0.0000399580
      Average number of iter. to solve lin. system:   23.3
      Total CPU time :    77.3 s

      atom #  2   q point #   3   iter #  12
      chi:   1  -0.0000000000   residue:    0.0000000000
      chi:   2  -0.1045265288   residue:    0.0000131255
      chi:   3  -0.0034711018   residue:    0.0000361210
      Average number of iter. to solve lin. system:   25.1
      Total CPU time :    83.4 s

      atom #  2   q point #   3   iter #  13
      chi:   1  -0.0000000000   residue:    0.0000000000
      chi:   2  -0.1045094781   residue:    0.0000170507
      chi:   3  -0.0034638914   residue:    0.0000072104
      Average number of iter. to solve lin. system:   24.1
      Total CPU time :    90.5 s

      atom #  2   q point #   3   iter #  14
      chi:   1  -0.0000000000   residue:    0.0000000000
      chi:   2  -0.1045188086   residue:    0.0000093305
      chi:   3  -0.0034565198   residue:    0.0000073715
      Average number of iter. to solve lin. system:   23.8
      Total CPU time :    98.3 s

      atom #  2   q point #   3   iter #  15
      chi:   1  -0.0000000000   residue:    0.0000000000
      chi:   2  -0.1045142789   residue:    0.0000045297
      chi:   3  -0.0034671421   residue:    0.0000106222
      Average number of iter. to solve lin. system:   25.1
      Total CPU time :   104.6 s

      atom #  2   q point #   3   iter #  16
      chi:   1  -0.0000000000   residue:    0.0000000000
      chi:   2  -0.1045136662   residue:    0.0000006127
      chi:   3  -0.0034651794   residue:    0.0000019627
      Average number of iter. to solve lin. system:   21.3
      Total CPU time :   109.9 s

      atom #  2   q point #   3   iter #  17
      chi:   1  -0.0000000000   residue:    0.0000000000
      chi:   2  -0.1045148167   residue:    0.0000011505
      chi:   3  -0.0034624393   residue:    0.0000027401
      Average number of iter. to solve lin. system:   24.5
      Total CPU time :   115.9 s

      atom #  2   q point #   3   iter #  18
      chi:   1  -0.0000000000   residue:    0.0000000000
      chi:   2  -0.1045143067   residue:    0.0000005100
      chi:   3  -0.0034622124   residue:    0.0000002269
      Average number of iter. to solve lin. system:   22.5
      Total CPU time :   121.4 s

      atom #  2   q point #   3   iter #  19
      chi:   1  -0.0000000000   residue:    0.0000000000
      chi:   2  -0.1045143763   residue:    0.0000000696
      chi:   3  -0.0034625841   residue:    0.0000003717
      Average number of iter. to solve lin. system:   24.2
      Total CPU time :   127.2 s

      atom #  2   q point #   3   iter #  20
      chi:   1  -0.0000000000   residue:    0.0000000000
      chi:   2  -0.1045143177   residue:    0.0000000586
      chi:   3  -0.0034625060   residue:    0.0000000781
      Average number of iter. to solve lin. system:   23.7
      Total CPU time :   132.9 s

      atom #  2   q point #   3   iter #  21
      chi:   1  -0.0000000000   residue:    0.0000000000
      chi:   2  -0.1045143800   residue:    0.0000000622
      chi:   3  -0.0034627006   residue:    0.0000001947
      Average number of iter. to solve lin. system:   24.8
      Total CPU time :   138.9 s

      atom #  2   q point #   3   iter #  22
      chi:   1  -0.0000000000   residue:    0.0000000000
      chi:   2  -0.1045144276   residue:    0.0000000476
      chi:   3  -0.0034626602   residue:    0.0000000405
      Average number of iter. to solve lin. system:   22.8
      Total CPU time :   144.4 s

      atom #  2   q point #   3   iter #  23
      chi:   1  -0.0000000000   residue:    0.0000000000
      chi:   2  -0.1045142619   residue:    0.0000001657
      chi:   3  -0.0034626768   residue:    0.0000000167
      Average number of iter. to solve lin. system:   25.3
      Total CPU time :   150.6 s

      atom #  2   q point #   3   iter #  24
      chi:   1  -0.0000000000   residue:    0.0000000000
      chi:   2  -0.1045144060   residue:    0.0000001441
      chi:   3  -0.0034627109   residue:    0.0000000341
      Average number of iter. to solve lin. system:   23.8
      Total CPU time :   156.5 s

      atom #  2   q point #   3   iter #  25
      chi:   1  -0.0000000000   residue:    0.0000000000
      chi:   2  -0.1045143997   residue:    0.0000000063
      chi:   3  -0.0034627013   residue:    0.0000000096
      Average number of iter. to solve lin. system:   24.7
      Total CPU time :   162.8 s
      
      =--------------------------------------------=
             CONVERGENCE HAS BEEN REACHED
      =--------------------------------------------=


     =-------------------------------------------------------------=

     Calculation for q #   4 = (   0.0000000   0.0000000  -0.7071068 )

     =-------------------------------------------------------------=

     Performing NSCF calculation at all points k and k+q...
 
     Parallelization info
     --------------------
     sticks:   dense  smooth     PW     G-vecs:    dense   smooth      PW
     Min         207     105     37                 5652     2016     433
     Max         208     106     38                 5656     2019     436
     Sum        1663     847    301                45239    16145    3479
 


     bravais-lattice index     =            7
     lattice parameter (alat)  =       7.8000  a.u.
     unit-cell volume          =     335.5589 (a.u.)^3
     number of atoms/cell      =            4
     number of atomic types    =            3
     number of electrons       =        48.00
     number of Kohn-Sham states=           29
     kinetic-energy cutoff     =      50.0000  Ry
     charge density cutoff     =     400.0000  Ry
     Exchange-correlation      = PBESOL ( 1  4 10  8 0 0)

     celldm(1)=   7.800000  celldm(2)=   0.000000  celldm(3)=   1.414214
     celldm(4)=   0.000000  celldm(5)=   0.000000  celldm(6)=   0.000000

     crystal axes: (cart. coord. in units of alat)
               a(1) = (   0.500000  -0.500000   0.707107 )  
               a(2) = (   0.500000   0.500000   0.707107 )  
               a(3) = (  -0.500000  -0.500000   0.707107 )  

     reciprocal axes: (cart. coord. in units 2 pi/alat)
               b(1) = (  1.000000 -1.000000  0.000000 )  
               b(2) = (  0.000000  1.000000  0.707107 )  
               b(3) = ( -1.000000  0.000000  0.707107 )  


     PseudoPot. # 1 for Mn read from file:
     /scratch/timrov/WORK_DFPT_plus_U/A_PORTING_2018/A_Gitlab/A_my_Gitlab_08.11.2018/q-e/pseudo/Mn.pbesol-spn-rrkjus_psl.0.3.1.UPF
     MD5 check sum: 61e28eea34dae291f95a967fe31318f1
     Pseudo is Ultrasoft + core correction, Zval = 15.0
     Generated using "atomic" code by A. Dal Corso v.6.3
     Using radial grid of 1187 points,  6 beta functions with: 
                l(1) =   0
                l(2) =   0
                l(3) =   1
                l(4) =   1
                l(5) =   2
                l(6) =   2
     Q(r) pseudized with 0 coefficients 


     PseudoPot. # 2 for Ni read from file:
     /scratch/timrov/WORK_DFPT_plus_U/A_PORTING_2018/A_Gitlab/A_my_Gitlab_08.11.2018/q-e/pseudo/Ni.pbesol-n-rrkjus_psl.0.1.UPF
     MD5 check sum: 8a65ecc087b22b902f7e15bb4f925df7
     Pseudo is Ultrasoft + core correction, Zval = 10.0
     Generated using "atomic" code by A. Dal Corso v.5.0.2 svn rev. 9415
     Using radial grid of 1195 points,  6 beta functions with: 
                l(1) =   0
                l(2) =   0
                l(3) =   1
                l(4) =   1
                l(5) =   2
                l(6) =   2
     Q(r) pseudized with 0 coefficients 


     PseudoPot. # 3 for Ga read from file:
     /scratch/timrov/WORK_DFPT_plus_U/A_PORTING_2018/A_Gitlab/A_my_Gitlab_08.11.2018/q-e/pseudo/Ga.pbesol-dn-rrkjus_psl.0.2.UPF
     MD5 check sum: 5c203afbed14d3ebde053c3a7130a9e7
     Pseudo is Ultrasoft + core correction, Zval = 13.0
     Generated using "atomic" code by A. Dal Corso v.5.0.2 svn rev. 9415
     Using radial grid of 1205 points,  6 beta functions with: 
                l(1) =   0
                l(2) =   0
                l(3) =   1
                l(4) =   1
                l(5) =   2
                l(6) =   2
     Q(r) pseudized with 0 coefficients 


     atomic species   valence    mass     pseudopotential
        Mn            15.00    54.93800     Mn( 1.00)
        Ni            10.00    58.69300     Ni( 1.00)
        Ga            13.00    69.72300     Ga( 1.00)

     Starting magnetic structure 
     atomic species   magnetization
        Mn           0.500
        Ni           0.500
        Ga           0.000


     Simplified LDA+U calculation (l_max = 2) with parameters (eV):
     atomic species    L          U    alpha       J0     beta
        Mn             2     0.0000   0.0000   0.0000   0.0000
        Ni             2     0.0000   0.0000   0.0000   0.0000



      8 Sym. Ops. (no inversion) found



   Cartesian axes

     site n.     atom                  positions (alat units)
         1           Mn  tau(   1) = (   0.0000000   0.0000000   0.0000000  )
         2           Ni  tau(   2) = (   0.5000000   0.0000000   1.0606602  )
         3           Ni  tau(   3) = (   0.0000000  -0.5000000   1.0606602  )
         4           Ga  tau(   4) = (   0.0000000   0.0000000   0.7071068  )

     number of k points=    26  mv smearing, width (Ry)=  0.0100
                       cart. coord. in units 2pi/alat
        k(    1) = (   0.0000000   0.0000000   0.0000000), wk =   0.0156250
        k(    2) = (   0.0000000   0.0000000  -0.7071068), wk =   0.0000000
        k(    3) = (  -0.2500000   0.0000000   0.1767767), wk =   0.1250000
        k(    4) = (  -0.2500000   0.0000000  -0.5303301), wk =   0.0000000
        k(    5) = (   0.5000000   0.0000000  -0.3535534), wk =   0.0625000
        k(    6) = (   0.5000000   0.0000000  -1.0606601), wk =   0.0000000
        k(    7) = (  -0.2500000   0.2500000   0.3535534), wk =   0.1250000
        k(    8) = (  -0.2500000   0.2500000  -0.3535534), wk =   0.0000000
        k(    9) = (   0.5000000   0.2500000  -0.1767767), wk =   0.2500000
        k(   10) = (   0.5000000   0.2500000  -0.8838835), wk =   0.0000000
        k(   11) = (   0.2500000   0.2500000   0.0000000), wk =   0.0625000
        k(   12) = (   0.2500000   0.2500000  -0.7071068), wk =   0.0000000
        k(   13) = (   0.5000000  -0.5000000  -0.7071068), wk =   0.0312500
        k(   14) = (   0.5000000  -0.5000000  -1.4142135), wk =   0.0000000
        k(   15) = (   0.0000000   0.0000000   0.3535534), wk =   0.0312500
        k(   16) = (   0.0000000   0.0000000  -0.3535534), wk =   0.0000000
        k(   17) = (   0.7500000   0.0000000  -0.1767767), wk =   0.1250000
        k(   18) = (   0.7500000   0.0000000  -0.8838835), wk =   0.0000000
        k(   19) = (   0.5000000   0.0000000   0.0000000), wk =   0.0625000
        k(   20) = (   0.5000000   0.0000000  -0.7071068), wk =   0.0000000
        k(   21) = (   0.7500000  -0.7500000  -0.7071068), wk =   0.0625000
        k(   22) = (   0.7500000  -0.7500000  -1.4142135), wk =   0.0000000
        k(   23) = (   0.5000000  -0.5000000  -0.3535534), wk =   0.0312500
        k(   24) = (   0.5000000  -0.5000000  -1.0606601), wk =   0.0000000
        k(   25) = (   0.0000000   0.0000000  -0.7071068), wk =   0.0156250
        k(   26) = (   0.0000000   0.0000000  -1.4142135), wk =   0.0000000

     Dense  grid:    45239 G-vectors     FFT dimensions: (  50,  50,  50)

     Smooth grid:    16145 G-vectors     FFT dimensions: (  36,  36,  36)

     Estimated max dynamical RAM per process >      26.01 MB

     Estimated total dynamical RAM >     208.11 MB
     Generating pointlists ...

     Check: negative core charge=   -0.000006

     The potential is recalculated from file :
     /scratch/timrov/WORK_DFPT_plus_U/A_PORTING_2018/A_Gitlab/A_my_Gitlab_08.11.2018/q-e/tempdir/HP/Ni2MnGa.save/charge-density

     Number of +U iterations with fixed ns =  0
     Starting occupations:
 --- enter write_ns ---
 LDA+U parameters:
U( 1)     =  0.00000001
alpha( 1) =  0.00000000
U( 2)     =  0.00000001
alpha( 2) =  0.00000000
atom    1   Tr[ns(na)] (up, down, total) =   4.54669  1.04783  5.59452
   spin  1
    eigenvalues: 
  0.887  0.887  0.887  0.943  0.943
    eigenvectors:
  0.000  0.000  0.000  0.000  1.000
  0.267  0.733  0.000  0.000  0.000
  0.733  0.267  0.000  0.000  0.000
  0.000  0.000  1.000  0.000  0.000
  0.000  0.000  0.000  1.000  0.000
    occupations:
  0.943 -0.000 -0.000  0.000  0.000
 -0.000  0.887 -0.000  0.000  0.000
 -0.000 -0.000  0.887  0.000  0.000
  0.000  0.000  0.000  0.887 -0.000
  0.000  0.000  0.000 -0.000  0.943
   spin  2
    eigenvalues: 
  0.122  0.122  0.268  0.268  0.268
    eigenvectors:
  1.000  0.000  0.000  0.000  0.000
  0.000  0.000  0.138  0.862  0.000
  0.000  0.000  0.862  0.138  0.000
  0.000  0.000  0.000  0.000  1.000
  0.000  1.000  0.000  0.000  0.000
    occupations:
  0.122 -0.000 -0.000  0.000  0.000
 -0.000  0.268 -0.000  0.000  0.000
 -0.000 -0.000  0.268  0.000  0.000
  0.000  0.000  0.000  0.268 -0.000
  0.000  0.000  0.000 -0.000  0.122
atomic mag. moment =     3.498857
atom    2   Tr[ns(na)] (up, down, total) =   4.53249  4.28164  8.81413
   spin  1
    eigenvalues: 
  0.896  0.896  0.896  0.922  0.922
    eigenvectors:
  0.000  0.000  0.000  1.000  0.000
  0.256  0.744  0.000  0.000  0.000
  0.744  0.256  0.000  0.000  0.000
  0.000  0.000  1.000  0.000  0.000
  0.000  0.000  0.000  0.000  1.000
    occupations:
  0.922 -0.000 -0.000  0.000  0.000
 -0.000  0.896 -0.000  0.000  0.000
 -0.000 -0.000  0.896  0.000  0.000
  0.000  0.000  0.000  0.896 -0.000
  0.000  0.000  0.000 -0.000  0.922
   spin  2
    eigenvalues: 
  0.836  0.836  0.870  0.870  0.870
    eigenvectors:
  0.000  1.000  0.000  0.000  0.000
  0.000  0.000  0.153  0.847  0.000
  0.000  0.000  0.847  0.153  0.000
  0.000  0.000  0.000  0.000  1.000
  1.000  0.000  0.000  0.000  0.000
    occupations:
  0.836 -0.000 -0.000  0.000  0.000
 -0.000  0.870 -0.000  0.000  0.000
 -0.000 -0.000  0.870  0.000  0.000
  0.000  0.000  0.000  0.870 -0.000
  0.000  0.000  0.000 -0.000  0.836
atomic mag. moment =     0.250851
atom    3   Tr[ns(na)] (up, down, total) =   4.53249  4.28164  8.81413
   spin  1
    eigenvalues: 
  0.896  0.896  0.896  0.922  0.922
    eigenvectors:
  0.000  0.000  0.000  1.000  0.000
  0.158  0.842  0.000  0.000  0.000
  0.842  0.158  0.000  0.000  0.000
  0.000  0.000  1.000  0.000  0.000
  0.000  0.000  0.000  0.000  1.000
    occupations:
  0.922 -0.000 -0.000  0.000  0.000
 -0.000  0.896 -0.000  0.000  0.000
 -0.000 -0.000  0.896  0.000  0.000
  0.000  0.000  0.000  0.896 -0.000
  0.000  0.000  0.000 -0.000  0.922
   spin  2
    eigenvalues: 
  0.836  0.836  0.870  0.870  0.870
    eigenvectors:
  0.000  1.000  0.000  0.000  0.000
  0.000  0.000  0.188  0.812  0.000
  0.000  0.000  0.812  0.188  0.000
  0.000  0.000  0.000  0.000  1.000
  1.000  0.000  0.000  0.000  0.000
    occupations:
  0.836 -0.000 -0.000  0.000  0.000
 -0.000  0.870 -0.000  0.000  0.000
 -0.000 -0.000  0.870  0.000  0.000
  0.000  0.000  0.000  0.870 -0.000
  0.000  0.000  0.000 -0.000  0.836
atomic mag. moment =     0.250851
N of occupied +U levels =   23.222775
 --- exit write_ns ---
 Atomic wfc used for LDA+U Projector are orthogonalized
     Starting wfcs are   37 atomic wfcs

     Band Structure Calculation
     Davidson diagonalization with overlap

     ethr =  1.00E-11,  avg # of iterations = 14.2

     total cpu time spent up to now is       -1.0 secs

     End of band structure calculation

 ------ SPIN UP ------------


          k = 0.0000 0.0000 0.0000 (  1989 PWs)   bands (ev):

   -66.5000 -35.3610 -35.3610 -35.3610  -0.4421  -0.4421  -0.4421  -0.4134
    -0.4134   3.7133  10.4574  10.4574  10.6712  10.6712  10.6712  11.1741
    11.1741  11.1741  13.0424  13.0424  13.0424  13.0689  13.0689  13.1914
    13.1914  18.4395  18.7161  18.7161  18.7161

          k = 0.0000 0.0000-0.7071 (  2044 PWs)   bands (ev):

   -66.4999 -35.3628 -35.3615 -35.3615  -0.4659  -0.4283  -0.4146  -0.4146
    -0.3905   6.7823   8.3532  10.0303  10.4210  11.1646  11.1646  11.5696
    11.9037  11.9037  11.9948  12.6541  12.6541  12.7884  12.9734  13.0188
    13.1641  13.4731  13.4731  13.5956  17.4454

          k =-0.2500 0.0000 0.1768 (  1997 PWs)   bands (ev):

   -66.4999 -35.3619 -35.3611 -35.3611  -0.4435  -0.4361  -0.4361  -0.4064
    -0.4064   4.5416   9.8548  10.2317  10.2317  10.9798  11.0299  11.0299
    11.3464  11.3464  12.5068  12.6559  12.6559  13.0250  13.0250  13.2718
    13.2718  15.2622  18.0310  18.0310  18.1552

          k =-0.2500 0.0000-0.5303 (  2002 PWs)   bands (ev):

   -66.4999 -35.3625 -35.3617 -35.3614  -0.4509  -0.4274  -0.4224  -0.4137
    -0.3949   6.3418   8.5535   9.7187  10.6993  10.7593  11.0385  11.2864
    11.5980  11.9389  12.1378  12.2351  12.6272  12.7708  12.9791  13.1825
    13.2547  13.6648  14.5615  15.1039  17.9079

          k = 0.5000 0.0000-0.3536 (  2006 PWs)   bands (ev):

   -66.4999 -35.3627 -35.3612 -35.3612  -0.4454  -0.4321  -0.4321  -0.3975
    -0.3975   6.2859   7.6813  10.2006  10.2006  11.0165  11.0165  11.0466
    11.7998  11.7998  12.3010  12.3010  12.3717  13.0024  13.0024  13.2115
    13.2115  13.5779  17.8481  18.0339  18.0339

          k = 0.5000 0.0000-1.0607 (  2006 PWs)   bands (ev):

   -66.4999 -35.3627 -35.3612 -35.3612  -0.4454  -0.4321  -0.4321  -0.3975
    -0.3975   6.2859   7.6813  10.2006  10.2006  11.0165  11.0165  11.0466
    11.7998  11.7998  12.3010  12.3010  12.3717  13.0024  13.0024  13.2115
    13.2115  13.5779  17.8481  18.0339  18.0339

          k =-0.2500 0.2500 0.3536 (  2005 PWs)   bands (ev):

   -66.4999 -35.3622 -35.3617 -35.3612  -0.4394  -0.4366  -0.4282  -0.4050
    -0.4019   5.7706   9.0408   9.8772  10.2302  10.7669  10.9865  11.3308
    11.6106  11.7207  12.1689  12.3412  12.4554  12.8005  12.9765  13.1907
    13.4498  14.4232  14.5860  16.5876  18.0589

          k =-0.2500 0.2500-0.3536 (  2005 PWs)   bands (ev):

   -66.4999 -35.3622 -35.3617 -35.3612  -0.4394  -0.4366  -0.4282  -0.4050
    -0.4019   5.7706   9.0408   9.8772  10.2302  10.7669  10.9865  11.3308
    11.6106  11.7207  12.1689  12.3412  12.4554  12.8005  12.9765  13.1907
    13.4498  14.4232  14.5860  16.5876  18.0589

          k = 0.5000 0.2500-0.1768 (  2002 PWs)   bands (ev):

   -66.4999 -35.3625 -35.3617 -35.3614  -0.4509  -0.4274  -0.4224  -0.4137
    -0.3949   6.3418   8.5535   9.7187  10.6993  10.7593  11.0385  11.2864
    11.5980  11.9389  12.1378  12.2351  12.6272  12.7708  12.9791  13.1825
    13.2547  13.6648  14.5615  15.1039  17.9079

          k = 0.5000 0.2500-0.8839 (  2002 PWs)   bands (ev):

   -66.4999 -35.3625 -35.3617 -35.3614  -0.4509  -0.4274  -0.4224  -0.4137
    -0.3949   6.3418   8.5535   9.7187  10.6993  10.7593  11.0385  11.2864
    11.5980  11.9389  12.1378  12.2351  12.6272  12.7708  12.9791  13.1825
    13.2547  13.6648  14.5615  15.1039  17.9079

          k = 0.2500 0.2500 0.0000 (  1996 PWs)   bands (ev):

   -66.4999 -35.3619 -35.3613 -35.3613  -0.4537  -0.4280  -0.4280  -0.4153
    -0.4019   4.8030   9.3149  10.6214  10.8316  10.9517  10.9517  11.0305
    11.4349  11.4349  12.5066  12.5066  12.6794  12.7147  13.1145  13.1775
    13.2386  15.7137  15.8365  15.8365  18.1152

          k = 0.2500 0.2500-0.7071 (  1984 PWs)   bands (ev):

   -66.4999 -35.3622 -35.3622 -35.3615  -0.4400  -0.4400  -0.4187  -0.4145
    -0.3943   6.9626   9.1239   9.1239  10.1310  10.9489  11.2172  11.3665
    11.3665  12.0039  12.0039  12.4625  12.5963  12.7769  13.1201  13.1433
    13.1433  13.6184  13.6335  13.6335  20.3200

          k = 0.5000-0.5000-0.7071 (  2044 PWs)   bands (ev):

   -66.4999 -35.3628 -35.3615 -35.3615  -0.4659  -0.4283  -0.4146  -0.4146
    -0.3905   6.7823   8.3532  10.0303  10.4210  11.1646  11.1646  11.5696
    11.9037  11.9037  11.9948  12.6541  12.6541  12.7884  12.9734  13.0188
    13.1641  13.4731  13.4731  13.5956  17.4454

          k = 0.5000-0.5000-1.4142 (  2044 PWs)   bands (ev):

   -66.4999 -35.3628 -35.3615 -35.3615  -0.4659  -0.4283  -0.4146  -0.4146
    -0.3905   6.7823   8.3532  10.0303  10.4210  11.1646  11.1646  11.5696
    11.9037  11.9037  11.9948  12.6541  12.6541  12.7884  12.9734  13.0188
    13.1641  13.4731  13.4731  13.5956  17.4454

          k = 0.0000 0.0000 0.3536 (  1996 PWs)   bands (ev):

   -66.4999 -35.3619 -35.3613 -35.3613  -0.4537  -0.4280  -0.4280  -0.4153
    -0.4019   4.8030   9.3149  10.6214  10.8316  10.9517  10.9517  11.0305
    11.4349  11.4349  12.5066  12.5066  12.6794  12.7147  13.1145  13.1775
    13.2386  15.7137  15.8365  15.8365  18.1152

[...]
        k (   22) = (   0.7500000  -0.7500000  -1.4142135), wk = 0.0000000
        k (   23) = (   0.5000000  -0.5000000  -0.3535534), wk = 0.0312500
        k (   24) = (   0.5000000  -0.5000000  -1.0606601), wk = 0.0000000
        k (   25) = (   0.0000000   0.0000000  -0.7071068), wk = 0.0156250
        k (   26) = (   0.0000000   0.0000000  -1.4142135), wk = 0.0000000
        k (   27) = (   0.0000000   0.0000000   0.0000000), wk = 0.0156250
        k (   28) = (   0.0000000   0.0000000  -0.7071068), wk = 0.0000000
        k (   29) = (  -0.2500000   0.0000000   0.1767767), wk = 0.1250000
        k (   30) = (  -0.2500000   0.0000000  -0.5303301), wk = 0.0000000
        k (   31) = (   0.5000000   0.0000000  -0.3535534), wk = 0.0625000
        k (   32) = (   0.5000000   0.0000000  -1.0606601), wk = 0.0000000
        k (   33) = (  -0.2500000   0.2500000   0.3535534), wk = 0.1250000
        k (   34) = (  -0.2500000   0.2500000  -0.3535534), wk = 0.0000000
        k (   35) = (   0.5000000   0.2500000  -0.1767767), wk = 0.2500000
        k (   36) = (   0.5000000   0.2500000  -0.8838835), wk = 0.0000000
        k (   37) = (   0.2500000   0.2500000   0.0000000), wk = 0.0625000
        k (   38) = (   0.2500000   0.2500000  -0.7071068), wk = 0.0000000
        k (   39) = (   0.5000000  -0.5000000  -0.7071068), wk = 0.0312500
        k (   40) = (   0.5000000  -0.5000000  -1.4142135), wk = 0.0000000
        k (   41) = (   0.0000000   0.0000000   0.3535534), wk = 0.0312500
        k (   42) = (   0.0000000   0.0000000  -0.3535534), wk = 0.0000000
        k (   43) = (   0.7500000   0.0000000  -0.1767767), wk = 0.1250000
        k (   44) = (   0.7500000   0.0000000  -0.8838835), wk = 0.0000000
        k (   45) = (   0.5000000   0.0000000   0.0000000), wk = 0.0625000
        k (   46) = (   0.5000000   0.0000000  -0.7071068), wk = 0.0000000
        k (   47) = (   0.7500000  -0.7500000  -0.7071068), wk = 0.0625000
        k (   48) = (   0.7500000  -0.7500000  -1.4142135), wk = 0.0000000
        k (   49) = (   0.5000000  -0.5000000  -0.3535534), wk = 0.0312500
        k (   50) = (   0.5000000  -0.5000000  -1.0606601), wk = 0.0000000
        k (   51) = (   0.0000000   0.0000000  -0.7071068), wk = 0.0156250
        k (   52) = (   0.0000000   0.0000000  -1.4142135), wk = 0.0000000

                       cryst. coord.
        k (    1) = (   0.0000000   0.0000000   0.0000000), wk = 0.0156250
        k (    2) = (  -0.5000000  -0.5000000  -0.5000000), wk = 0.0000000
        k (    3) = (   0.0000000   0.0000000   0.2500000), wk = 0.1250000
        k (    4) = (  -0.5000000  -0.5000000  -0.2500000), wk = 0.0000000
        k (    5) = (   0.0000000   0.0000000  -0.5000000), wk = 0.0625000
        k (    6) = (  -0.5000000  -0.5000000  -1.0000000), wk = 0.0000000
        k (    7) = (   0.0000000   0.2500000   0.2500000), wk = 0.1250000
        k (    8) = (  -0.5000000  -0.2500000  -0.2500000), wk = 0.0000000
        k (    9) = (   0.0000000   0.2500000  -0.5000000), wk = 0.2500000
        k (   10) = (  -0.5000000  -0.2500000  -1.0000000), wk = 0.0000000
        k (   11) = (   0.0000000   0.2500000  -0.2500000), wk = 0.0625000
        k (   12) = (  -0.5000000  -0.2500000  -0.7500000), wk = 0.0000000
        k (   13) = (   0.0000000  -0.5000000  -0.5000000), wk = 0.0312500
        k (   14) = (  -0.5000000  -1.0000000  -1.0000000), wk = 0.0000000
        k (   15) = (   0.2500000   0.2500000   0.2500000), wk = 0.0312500
        k (   16) = (  -0.2500000  -0.2500000  -0.2500000), wk = 0.0000000
        k (   17) = (   0.2500000   0.2500000  -0.5000000), wk = 0.1250000
        k (   18) = (  -0.2500000  -0.2500000  -1.0000000), wk = 0.0000000
        k (   19) = (   0.2500000   0.2500000  -0.2500000), wk = 0.0625000
        k (   20) = (  -0.2500000  -0.2500000  -0.7500000), wk = 0.0000000
        k (   21) = (   0.2500000  -0.5000000  -0.5000000), wk = 0.0625000
        k (   22) = (  -0.2500000  -1.0000000  -1.0000000), wk = 0.0000000
        k (   23) = (   0.2500000  -0.2500000  -0.2500000), wk = 0.0312500
        k (   24) = (  -0.2500000  -0.7500000  -0.7500000), wk = 0.0000000
        k (   25) = (  -0.5000000  -0.5000000  -0.5000000), wk = 0.0156250
        k (   26) = (  -1.0000000  -1.0000000  -1.0000000), wk = 0.0000000
        k (   27) = (   0.0000000   0.0000000   0.0000000), wk = 0.0156250
        k (   28) = (  -0.5000000  -0.5000000  -0.5000000), wk = 0.0000000
        k (   29) = (   0.0000000   0.0000000   0.2500000), wk = 0.1250000
        k (   30) = (  -0.5000000  -0.5000000  -0.2500000), wk = 0.0000000
        k (   31) = (   0.0000000   0.0000000  -0.5000000), wk = 0.0625000
        k (   32) = (  -0.5000000  -0.5000000  -1.0000000), wk = 0.0000000
        k (   33) = (   0.0000000   0.2500000   0.2500000), wk = 0.1250000
        k (   34) = (  -0.5000000  -0.2500000  -0.2500000), wk = 0.0000000
        k (   35) = (   0.0000000   0.2500000  -0.5000000), wk = 0.2500000
        k (   36) = (  -0.5000000  -0.2500000  -1.0000000), wk = 0.0000000
        k (   37) = (   0.0000000   0.2500000  -0.2500000), wk = 0.0625000
        k (   38) = (  -0.5000000  -0.2500000  -0.7500000), wk = 0.0000000
        k (   39) = (   0.0000000  -0.5000000  -0.5000000), wk = 0.0312500
        k (   40) = (  -0.5000000  -1.0000000  -1.0000000), wk = 0.0000000
        k (   41) = (   0.2500000   0.2500000   0.2500000), wk = 0.0312500
        k (   42) = (  -0.2500000  -0.2500000  -0.2500000), wk = 0.0000000
        k (   43) = (   0.2500000   0.2500000  -0.5000000), wk = 0.1250000
        k (   44) = (  -0.2500000  -0.2500000  -1.0000000), wk = 0.0000000
        k (   45) = (   0.2500000   0.2500000  -0.2500000), wk = 0.0625000
        k (   46) = (  -0.2500000  -0.2500000  -0.7500000), wk = 0.0000000
        k (   47) = (   0.2500000  -0.5000000  -0.5000000), wk = 0.0625000
        k (   48) = (  -0.2500000  -1.0000000  -1.0000000), wk = 0.0000000
        k (   49) = (   0.2500000  -0.2500000  -0.2500000), wk = 0.0312500
        k (   50) = (  -0.2500000  -0.7500000  -0.7500000), wk = 0.0000000
        k (   51) = (  -0.5000000  -0.5000000  -0.5000000), wk = 0.0156250
        k (   52) = (  -1.0000000  -1.0000000  -1.0000000), wk = 0.0000000

     Atomic wfc used for the DFT+U projector are orthogonalized

     Total time spent up to now is:
     HP           :   2m46.17s CPU   2m49.78s WALL

      =--------------------------------------------=
             START SOLVING THE LINEAR SYSTEM
      =--------------------------------------------=

      atom #  2   q point #   4   iter #   1
      chi:   1   0.0000000000
      chi:   2  -0.9020313027
      chi:   3  -0.0066963282
      Average number of iter. to solve lin. system:   48.7
      Total CPU time :   178.0 s

      atom #  2   q point #   4   iter #   2
      chi:   1  -0.0000000000   residue:    0.0000000000
      chi:   2   4.6266280985   residue:    5.5286594012
      chi:   3   0.5523578095   residue:    0.5590541377
      Average number of iter. to solve lin. system:   21.8
      Total CPU time :   182.3 s

      atom #  2   q point #   4   iter #   3
      chi:   1   0.0000000000   residue:    0.0000000000
      chi:   2   0.0864233450   residue:    4.5402047535
      chi:   3  -0.3825134230   residue:    0.9348712325
      Average number of iter. to solve lin. system:   18.1
      Total CPU time :   185.8 s

      atom #  2   q point #   4   iter #   4
      chi:   1   0.0000000000   residue:    0.0000000000
      chi:   2  -0.1078514945   residue:    0.1942748395
      chi:   3   0.1038340081   residue:    0.4863474311
      Average number of iter. to solve lin. system:   19.5
      Total CPU time :   189.4 s

      atom #  2   q point #   4   iter #   5
      chi:   1   0.0000000000   residue:    0.0000000000
      chi:   2  -0.1100761756   residue:    0.0022246811
      chi:   3   0.0084427526   residue:    0.0953912555
      Average number of iter. to solve lin. system:   18.7
      Total CPU time :   192.9 s

      atom #  2   q point #   4   iter #   6
      chi:   1   0.0000000000   residue:    0.0000000000
      chi:   2  -0.1084351478   residue:    0.0016410278
      chi:   3   0.0022501860   residue:    0.0061925666
      Average number of iter. to solve lin. system:   20.8
      Total CPU time :   196.8 s

      atom #  2   q point #   4   iter #   7
      chi:   1   0.0000000000   residue:    0.0000000000
      chi:   2  -0.1042518844   residue:    0.0041832635
      chi:   3   0.0025974324   residue:    0.0003472464
      Average number of iter. to solve lin. system:   19.7
      Total CPU time :   200.7 s

      atom #  2   q point #   4   iter #   8
      chi:   1   0.0000000000   residue:    0.0000000000
      chi:   2  -0.1046460408   residue:    0.0003941564
      chi:   3   0.0033977373   residue:    0.0008003048
      Average number of iter. to solve lin. system:   22.0
      Total CPU time :   204.6 s

      atom #  2   q point #   4   iter #   9
      chi:   1   0.0000000000   residue:    0.0000000000
      chi:   2  -0.1048560285   residue:    0.0002099878
      chi:   3   0.0038241629   residue:    0.0004264256
      Average number of iter. to solve lin. system:   22.9
      Total CPU time :   209.1 s

      atom #  2   q point #   4   iter #  10
      chi:   1   0.0000000000   residue:    0.0000000000
      chi:   2  -0.1045767548   residue:    0.0002792737
      chi:   3   0.0034759041   residue:    0.0003482588
      Average number of iter. to solve lin. system:   22.1
      Total CPU time :   213.1 s

      atom #  2   q point #   4   iter #  11
      chi:   1   0.0000000000   residue:    0.0000000000
      chi:   2  -0.1045128483   residue:    0.0000639065
      chi:   3   0.0034340885   residue:    0.0000418156
      Average number of iter. to solve lin. system:   22.3
      Total CPU time :   217.2 s

      atom #  2   q point #   4   iter #  12
      chi:   1   0.0000000000   residue:    0.0000000000
      chi:   2  -0.1045264022   residue:    0.0000135540
      chi:   3   0.0034711805   residue:    0.0000370921
      Average number of iter. to solve lin. system:   23.9
      Total CPU time :   221.3 s

      atom #  2   q point #   4   iter #  13
      chi:   1   0.0000000000   residue:    0.0000000000
      chi:   2  -0.1045092222   residue:    0.0000171800
      chi:   3   0.0034637567   residue:    0.0000074238
      Average number of iter. to solve lin. system:   23.3
      Total CPU time :   225.3 s

      atom #  2   q point #   4   iter #  14
      chi:   1   0.0000000000   residue:    0.0000000000
      chi:   2  -0.1045190544   residue:    0.0000098322
      chi:   3   0.0034563793   residue:    0.0000073774
      Average number of iter. to solve lin. system:   22.7
      Total CPU time :   229.3 s

      atom #  2   q point #   4   iter #  15
      chi:   1   0.0000000000   residue:    0.0000000000
      chi:   2  -0.1045141552   residue:    0.0000048992
      chi:   3   0.0034670459   residue:    0.0000106666
      Average number of iter. to solve lin. system:   23.9
      Total CPU time :   233.8 s

      atom #  2   q point #   4   iter #  16
      chi:   1   0.0000000000   residue:    0.0000000000
      chi:   2  -0.1045136340   residue:    0.0000005212
      chi:   3   0.0034649751   residue:    0.0000020707
      Average number of iter. to solve lin. system:   20.5
      Total CPU time :   237.6 s

      atom #  2   q point #   4   iter #  17
      chi:   1   0.0000000000   residue:    0.0000000000
      chi:   2  -0.1045147357   residue:    0.0000011016
      chi:   3   0.0034624939   residue:    0.0000024812
      Average number of iter. to solve lin. system:   23.2
      Total CPU time :   241.9 s

      atom #  2   q point #   4   iter #  18
      chi:   1   0.0000000000   residue:    0.0000000000
      chi:   2  -0.1045143317   residue:    0.0000004040
      chi:   3   0.0034622545   residue:    0.0000002394
      Average number of iter. to solve lin. system:   21.5
      Total CPU time :   245.7 s

      atom #  2   q point #   4   iter #  19
      chi:   1   0.0000000000   residue:    0.0000000000
      chi:   2  -0.1045143950   residue:    0.0000000633
      chi:   3   0.0034626015   residue:    0.0000003470
      Average number of iter. to solve lin. system:   22.9
      Total CPU time :   249.9 s

      atom #  2   q point #   4   iter #  20
      chi:   1   0.0000000000   residue:    0.0000000000
      chi:   2  -0.1045143282   residue:    0.0000000668
      chi:   3   0.0034624928   residue:    0.0000001087
      Average number of iter. to solve lin. system:   22.9
      Total CPU time :   253.8 s

      atom #  2   q point #   4   iter #  21
      chi:   1   0.0000000000   residue:    0.0000000000
      chi:   2  -0.1045143835   residue:    0.0000000553
      chi:   3   0.0034626973   residue:    0.0000002045
      Average number of iter. to solve lin. system:   23.7
      Total CPU time :   258.3 s

      atom #  2   q point #   4   iter #  22
      chi:   1   0.0000000000   residue:    0.0000000000
      chi:   2  -0.1045144401   residue:    0.0000000566
      chi:   3   0.0034626625   residue:    0.0000000348
      Average number of iter. to solve lin. system:   21.8
      Total CPU time :   262.1 s

      atom #  2   q point #   4   iter #  23
      chi:   1   0.0000000000   residue:    0.0000000000
      chi:   2  -0.1045142619   residue:    0.0000001782
      chi:   3   0.0034626608   residue:    0.0000000017
      Average number of iter. to solve lin. system:   24.0
      Total CPU time :   266.3 s

      atom #  2   q point #   4   iter #  24
      chi:   1   0.0000000000   residue:    0.0000000000
      chi:   2  -0.1045144054   residue:    0.0000001435
      chi:   3   0.0034627101   residue:    0.0000000493
      Average number of iter. to solve lin. system:   22.6
      Total CPU time :   270.2 s

      atom #  2   q point #   4   iter #  25
      chi:   1   0.0000000000   residue:    0.0000000000
      chi:   2  -0.1045144016   residue:    0.0000000038
      chi:   3   0.0034626980   residue:    0.0000000121
      Average number of iter. to solve lin. system:   23.1
      Total CPU time :   274.3 s

      atom #  2   q point #   4   iter #  26
      chi:   1   0.0000000000   residue:    0.0000000000
      chi:   2  -0.1045144074   residue:    0.0000000057
      chi:   3   0.0034627182   residue:    0.0000000202
      Average number of iter. to solve lin. system:   22.8
      Total CPU time :   278.2 s

      atom #  2   q point #   4   iter #  27
      chi:   1   0.0000000000   residue:    0.0000000000
      chi:   2  -0.1045144095   residue:    0.0000000021
      chi:   3   0.0034627137   residue:    0.0000000045
      Average number of iter. to solve lin. system:   22.7
      Total CPU time :   282.1 s
      
      =--------------------------------------------=
             CONVERGENCE HAS BEEN REACHED
      =--------------------------------------------=

      Not all q points were considered. Stopping smoothly...

 
     PRINTING TIMING FROM PWSCF ROUTINES: 
 
     init_run     :      1.04s CPU      1.05s WALL (       2 calls)
     electrons    :     14.40s CPU     14.61s WALL (       2 calls)

     Called by init_run:
     wfcinit      :      0.17s CPU      0.17s WALL (       2 calls)
     wfcinit:atom :      0.01s CPU      0.01s WALL (     124 calls)
     wfcinit:wfcr :      1.08s CPU      1.11s WALL (     124 calls)
     potinit      :      0.05s CPU      0.05s WALL (       2 calls)
     hinit0       :      0.65s CPU      0.64s WALL (       2 calls)

     Called by electrons:
     c_bands      :     14.39s CPU     14.60s WALL (       2 calls)
     v_of_rho     :      0.08s CPU      0.08s WALL (       4 calls)
     v_h          :      0.00s CPU      0.00s WALL (       4 calls)
     v_xc         :      0.08s CPU      0.08s WALL (       4 calls)
     newd         :      0.16s CPU      0.33s WALL (       4 calls)

     Called by c_bands:
     init_us_2    :      0.34s CPU      0.33s WALL (    2036 calls)
     cegterg      :     13.09s CPU     13.27s WALL (     128 calls)

     Called by sum_band:

     Called by *egterg:
     h_psi        :    208.24s CPU    211.77s WALL (   67839 calls)
     s_psi        :     11.29s CPU     10.55s WALL (  135528 calls)
     g_psi        :      0.03s CPU      0.06s WALL (    1748 calls)
     cdiaghg      :      3.65s CPU      3.69s WALL (    1872 calls)
     cegterg:over :      0.56s CPU      0.57s WALL (    1748 calls)
     cegterg:upda :      0.36s CPU      0.36s WALL (    1748 calls)
     cegterg:last :      0.27s CPU      0.27s WALL (     454 calls)

     Called by h_psi:
     h_psi:pot    :    204.02s CPU    207.03s WALL (   67839 calls)
     h_psi:calbec :      7.12s CPU      6.20s WALL (   67839 calls)
     vloc_psi     :    191.80s CPU    195.34s WALL (   67839 calls)
     add_vuspsi   :      5.03s CPU      5.34s WALL (   67839 calls)
     vhpsi        :      3.91s CPU      4.27s WALL (   67839 calls)

     General routines
     calbec       :     14.98s CPU     14.54s WALL (  205031 calls)
     fft          :      0.79s CPU      0.84s WALL (    1616 calls)
     ffts         :      0.03s CPU      0.03s WALL (     216 calls)
     fftw         :    199.41s CPU    197.81s WALL ( 2160320 calls)
     interpolate  :      0.09s CPU      0.12s WALL (     216 calls)
     davcio       :      1.00s CPU      1.49s WALL (   81633 calls)
 
     Parallel routines
     fft_scatt_xy :     13.89s CPU     17.55s WALL ( 2162152 calls)
     fft_scatt_yz :     55.42s CPU     46.69s WALL ( 2162152 calls)

     Hubbard U routines
     vhpsi        :      3.91s CPU      4.27s WALL (   67839 calls)
 
     init_vloc    :      0.17s CPU      0.17s WALL (       4 calls)
     init_us_1    :      0.64s CPU      0.64s WALL (       4 calls)
     newd         :      0.16s CPU      0.33s WALL (       4 calls)
     add_vuspsi   :      5.03s CPU      5.34s WALL (   67839 calls)
 
     PRINTING TIMING FROM HP ROUTINES: 
 
     hp_setup_q   :      0.17s CPU      0.18s WALL (       2 calls)
     hp_init_q    :      0.21s CPU      0.22s WALL (       2 calls)
     hp_solve_lin :    257.63s CPU    262.83s WALL (       2 calls)
     hp_dvpsi_per :      0.11s CPU      0.11s WALL (    1602 calls)
     hp_dnsq      :      0.27s CPU      0.33s WALL (      52 calls)
     hp_symdnsq   :      0.01s CPU      0.01s WALL (      52 calls)
     hp_vpsifft   :      7.61s CPU      7.93s WALL (    1540 calls)
     hp_run_nscf  :     15.57s CPU     15.88s WALL (       2 calls)
     hp_psymdvscf :      4.11s CPU      4.11s WALL (      52 calls)
 
     PRINTING TIMING FROM LR MODULE: 
 
     ortho        :      0.81s CPU      0.85s WALL (    1602 calls)
     cgsolve      :    225.69s CPU    229.88s WALL (    1602 calls)
     ch_psi       :    222.50s CPU    226.52s WALL (   65839 calls)
     incdrhoscf   :      8.34s CPU      8.58s WALL (    1602 calls)
     dv_of_drho   :      0.89s CPU      0.90s WALL (      52 calls)
     mix_pot      :      0.16s CPU      0.28s WALL (      52 calls)
     setup_dgc    :      0.14s CPU      0.14s WALL (       2 calls)
     setup_dmuxc  :      0.03s CPU      0.03s WALL (       2 calls)
     setup_nbnd_o :      0.00s CPU      0.00s WALL (       2 calls)
     lr_orthoUwfc :      0.19s CPU      0.20s WALL (       2 calls)
     cft_wave     :      7.29s CPU      7.38s WALL (   76500 calls)
 
     USPP ROUTINES: 
 
     newdq        :      3.48s CPU      3.49s WALL (      52 calls)
     adddvscf     :      0.62s CPU      0.60s WALL (    1540 calls)
     addusdbec    :      0.29s CPU      0.28s WALL (    1602 calls)
 
     HP           :   4m36.44s CPU   4m42.15s WALL

 
   This run was terminated on:  15:49:50   4Feb2019            

=------------------------------------------------------------------------------=
   JOB DONE.
=------------------------------------------------------------------------------=
