
     Program PWSCF v.5.4.0 (svn rev. 12348) starts on 24Apr2016 at 21:28:33 

     This program is part of the open-source Quantum ESPRESSO suite
     for quantum simulation of materials; please cite
         "P. Giannozzi et al., J. Phys.:Condens. Matter 21 395502 (2009);
          URL http://www.quantum-espresso.org", 
     in publications or presentations arising from this work. More details at
     http://www.quantum-espresso.org/quote

     Serial version
     Reading input from noncolin-constrain_total.in

     Current dimensions of program PWSCF are:
     Max number of different atomic species (ntypx) = 10
     Max number of k-points (npk) =  40000
     Max angular momentum in pseudopotentials (lmaxx) =  3
               file Fe.pz-nd-rrkjus.UPF: wavefunction(s)  4S renormalized

     G-vector sticks info
     --------------------
     sticks:   dense  smooth     PW     G-vecs:    dense   smooth      PW
     Sum         307     155     55                 3367     1205     249

     Generating pointlists ...
     new r_m :   0.3572 (alat units)  1.8637 (a.u.) for type    1


     bravais-lattice index     =            3
     lattice parameter (alat)  =       5.2170  a.u.
     unit-cell volume          =      70.9958 (a.u.)^3
     number of atoms/cell      =            1
     number of atomic types    =            1
     number of electrons       =         8.00
     number of Kohn-Sham states=           16
     kinetic-energy cutoff     =      25.0000  Ry
     charge density cutoff     =     200.0000  Ry
     convergence threshold     =      1.0E-09
     mixing beta               =       0.3000
     number of iterations used =            8  plain     mixing
     Exchange-correlation      =  SLA  PZ   NOGX NOGC ( 1  1  0  0 0 0)
     Noncollinear calculation without spin-orbit


     celldm(1)=   5.217000  celldm(2)=   0.000000  celldm(3)=   0.000000
     celldm(4)=   0.000000  celldm(5)=   0.000000  celldm(6)=   0.000000

     crystal axes: (cart. coord. in units of alat)
               a(1) = (   0.500000   0.500000   0.500000 )  
               a(2) = (  -0.500000   0.500000   0.500000 )  
               a(3) = (  -0.500000  -0.500000   0.500000 )  

     reciprocal axes: (cart. coord. in units 2 pi/alat)
               b(1) = (  1.000000  0.000000  1.000000 )  
               b(2) = ( -1.000000  1.000000  0.000000 )  
               b(3) = (  0.000000 -1.000000  1.000000 )  


     PseudoPot. # 1 for Fe read from file:
     /home/fs395/scratch/QE/espresso/test-suite/..//pseudo/Fe.pz-nd-rrkjus.UPF
     MD5 check sum: 2e083728ad07023434bc1cc596eb954d
     Pseudo is Ultrasoft + core correction, Zval =  8.0
     Generated by new atomic code, or converted to UPF format
     Using radial grid of  957 points,  6 beta functions with: 
                l(1) =   0
                l(2) =   0
                l(3) =   1
                l(4) =   1
                l(5) =   2
                l(6) =   2
     Q(r) pseudized with 0 coefficients 


     atomic species   valence    mass     pseudopotential
        Fe             8.00    55.84700     Fe( 1.00)

      2 Sym. Ops., with inversion, found



   Cartesian axes

     site n.     atom                  positions (alat units)
         1           Fe  tau(   1) = (   0.0000000   0.0000000   0.0000000  )

     number of k points=    32  Marzari-Vanderbilt smearing, width (Ry)=  0.0500
                       cart. coord. in units 2pi/alat
        k(    1) = (   0.0000000   0.0000000   0.2500000), wk =   0.0312500
        k(    2) = (   0.0000000  -0.2500000   0.5000000), wk =   0.0312500
        k(    3) = (  -0.2500000   0.2500000   0.2500000), wk =   0.0312500
        k(    4) = (  -0.2500000   0.7500000  -0.2500000), wk =   0.0312500
        k(    5) = (   0.5000000  -0.5000000   0.2500000), wk =   0.0312500
        k(    6) = (   0.0000000   0.0000000   0.7500000), wk =   0.0312500
        k(    7) = (   0.2500000   0.0000000   0.0000000), wk =   0.0312500
        k(    8) = (   0.0000000   0.2500000   0.0000000), wk =   0.0312500
        k(    9) = (   0.0000000  -0.2500000  -0.5000000), wk =   0.0312500
        k(   10) = (  -0.2500000   0.0000000  -0.5000000), wk =   0.0312500
        k(   11) = (   0.2500000   0.0000000  -0.5000000), wk =   0.0312500
        k(   12) = (   0.5000000   0.2500000   0.0000000), wk =   0.0312500
        k(   13) = (  -0.5000000   0.2500000   0.0000000), wk =   0.0312500
        k(   14) = (   0.0000000   0.5000000  -0.2500000), wk =   0.0312500
        k(   15) = (   0.0000000   0.5000000   0.2500000), wk =   0.0312500
        k(   16) = (  -0.2500000   0.5000000   0.0000000), wk =   0.0312500
        k(   17) = (   0.2500000   0.5000000   0.0000000), wk =   0.0312500
        k(   18) = (   0.5000000   0.0000000  -0.2500000), wk =   0.0312500
        k(   19) = (   0.5000000   0.0000000   0.2500000), wk =   0.0312500
        k(   20) = (   0.2500000   0.2500000  -0.2500000), wk =   0.0312500
        k(   21) = (  -0.2500000  -0.2500000  -0.2500000), wk =   0.0312500
        k(   22) = (  -0.2500000   0.2500000  -0.2500000), wk =   0.0312500
        k(   23) = (   0.2500000   0.7500000   0.2500000), wk =   0.0312500
        k(   24) = (  -0.2500000  -0.7500000   0.2500000), wk =   0.0312500
        k(   25) = (   0.7500000  -0.2500000   0.2500000), wk =   0.0312500
        k(   26) = (  -0.5000000  -0.5000000  -0.2500000), wk =   0.0312500
        k(   27) = (   0.2500000   0.5000000   0.5000000), wk =   0.0312500
        k(   28) = (  -0.2500000   0.5000000  -0.5000000), wk =   0.0312500
        k(   29) = (  -0.5000000   0.2500000  -0.5000000), wk =   0.0312500
        k(   30) = (  -0.5000000  -0.2500000   0.5000000), wk =   0.0312500
        k(   31) = (   0.7500000   0.0000000   0.0000000), wk =   0.0312500
        k(   32) = (   0.0000000   0.7500000   0.0000000), wk =   0.0312500

     Dense  grid:     3367 G-vectors     FFT dimensions: (  24,  24,  24)

     Smooth grid:     1205 G-vectors     FFT dimensions: (  15,  15,  15)

     Largest allocated arrays     est. size (Mb)     dimensions
        Kohn-Sham Wavefunctions         0.08 Mb     (     318,   16)
        NL pseudopotentials             0.04 Mb     (     159,   18)
        Each V/rho on FFT grid          0.21 Mb     (   13824)
        Each G-vector array             0.03 Mb     (    3367)
        G-vector shells                 0.00 Mb     (      64)
     Largest temporary arrays     est. size (Mb)     dimensions
        Auxiliary wavefunctions         0.31 Mb     (     318,   64)
        Each subspace H/S matrix        0.06 Mb     (      64,   64)
        Each <psi_i|beta_j> matrix      0.01 Mb     (      18,   2,   16)
        Arrays for rho mixing           1.69 Mb     (   13824,    8)

     Check: negative/imaginary core charge=   -0.000013    0.000000

     Initial potential from superposition of free atoms

     starting charge    7.99953, renormalised to    8.00000
      External magnetic field:      -1.40219     -1.85888     -2.32843

 ==============================================================================
     atom number    1 relative position :    0.0000   0.0000   0.0000
     charge :     6.664635
     magnetization :          1.418059    1.881828    2.356304
     magnetization/charge:    0.212774    0.282360    0.353553
     polar coord.: r, theta, phi [deg] :     3.332318   45.000000   53.000000

 ==============================================================================
     Starting wfc are   12 randomized atomic wfcs +    4 random wfc

     total cpu time spent up to now is        0.6 secs

     per-process dynamical memory:     8.3 Mb

     Self-consistent Calculation

     iteration #  1     ecut=    25.00 Ry     beta=0.30
     Davidson diagonalization with overlap
     ethr =  1.00E-02,  avg # of iterations = 13.8
      External magnetic field:       0.13056      0.17370      0.21696

     total cpu time spent up to now is        2.7 secs

     total energy              =     -49.81719842 Ry
     Harris-Foulkes estimate   =     -91.11127859 Ry
     estimated scf accuracy    <       2.17499733 Ry

     total magnetization       =    -3.41    -4.52    -5.66 Bohr mag/cell
     absolute magnetization    =     8.00 Bohr mag/cell
     Magnetic field            =   0.1305631   0.1736956   0.2169555 Ry
     lambda                    =       0.50 Ry

     iteration #  2     ecut=    25.00 Ry     beta=0.30
     Davidson diagonalization with overlap
     ethr =  1.00E-02,  avg # of iterations =  6.4
      External magnetic field:      -0.20589     -0.27371     -0.34184

     total cpu time spent up to now is        3.7 secs

     total energy              =     -54.06914925 Ry
     Harris-Foulkes estimate   =     -56.28645457 Ry
     estimated scf accuracy    <       0.19951793 Ry

     total magnetization       =     1.60     2.13     2.66 Bohr mag/cell
     absolute magnetization    =     3.77 Bohr mag/cell
     Magnetic field            =  -0.2058912  -0.2737109  -0.3418413 Ry
     lambda                    =       0.50 Ry

     iteration #  3     ecut=    25.00 Ry     beta=0.30
     Davidson diagonalization with overlap
     ethr =  2.49E-03,  avg # of iterations =  4.6
      External magnetic field:       0.07343      0.09771      0.12206

     total cpu time spent up to now is        4.2 secs

     total energy              =     -53.83961407 Ry
     Harris-Foulkes estimate   =     -57.46785425 Ry
     estimated scf accuracy    <       0.65781043 Ry

     total magnetization       =    -1.99    -2.64    -3.30 Bohr mag/cell
     absolute magnetization    =     4.67 Bohr mag/cell
     Magnetic field            =   0.0734254   0.0977135   0.1220605 Ry
     lambda                    =       0.50 Ry

     iteration #  4     ecut=    25.00 Ry     beta=0.30
     Davidson diagonalization with overlap
     ethr =  2.49E-03,  avg # of iterations =  1.1
      External magnetic field:      -0.00170     -0.00227     -0.00286

     total cpu time spent up to now is        4.6 secs

     total energy              =     -55.41631842 Ry
     Harris-Foulkes estimate   =     -55.87270614 Ry
     estimated scf accuracy    <       0.14273868 Ry

     total magnetization       =     1.36     1.81     2.26 Bohr mag/cell
     absolute magnetization    =     3.19 Bohr mag/cell
     Magnetic field            =  -0.0017029  -0.0022734  -0.0028561 Ry
     lambda                    =       0.50 Ry

     iteration #  5     ecut=    25.00 Ry     beta=0.30
     Davidson diagonalization with overlap
     ethr =  1.78E-03,  avg # of iterations =  1.0
      External magnetic field:       0.00018      0.00025      0.00030

     total cpu time spent up to now is        5.0 secs

     total energy              =     -55.54600526 Ry
     Harris-Foulkes estimate   =     -55.54495957 Ry
     estimated scf accuracy    <       0.00269714 Ry

     total magnetization       =     0.41     0.54     0.68 Bohr mag/cell
     absolute magnetization    =     0.99 Bohr mag/cell
     Magnetic field            =   0.0001828   0.0002494   0.0003005 Ry
     lambda                    =       0.50 Ry

     iteration #  6     ecut=    25.00 Ry     beta=0.30
     Davidson diagonalization with overlap
     ethr =  3.37E-05,  avg # of iterations =  4.4
      External magnetic field:      -0.03679     -0.04793     -0.05955

     total cpu time spent up to now is        5.6 secs

     total energy              =     -55.52131512 Ry
     Harris-Foulkes estimate   =     -55.54670384 Ry
     estimated scf accuracy    <       0.00468207 Ry

     total magnetization       =     0.47     0.62     0.77 Bohr mag/cell
     absolute magnetization    =     1.12 Bohr mag/cell
     Magnetic field            =  -0.0367887  -0.0479304  -0.0595532 Ry
     lambda                    =       0.50 Ry

     iteration #  7     ecut=    25.00 Ry     beta=0.30
     Davidson diagonalization with overlap
     ethr =  3.37E-05,  avg # of iterations =  1.6
      External magnetic field:      -0.03764     -0.04948     -0.06163

     total cpu time spent up to now is        6.0 secs

     total energy              =     -55.65322494 Ry
     Harris-Foulkes estimate   =     -55.64638115 Ry
     estimated scf accuracy    <       0.15316408 Ry

     total magnetization       =    -0.72    -0.93    -1.16 Bohr mag/cell
     absolute magnetization    =     1.65 Bohr mag/cell
     Magnetic field            =  -0.0376400  -0.0494799  -0.0616256 Ry
     lambda                    =       0.50 Ry

     iteration #  8     ecut=    25.00 Ry     beta=0.30
     Davidson diagonalization with overlap
     ethr =  3.37E-05,  avg # of iterations =  1.5
      External magnetic field:      -0.03952     -0.04999     -0.06161

     total cpu time spent up to now is        6.4 secs

     total energy              =     -55.65613461 Ry
     Harris-Foulkes estimate   =     -55.65329192 Ry
     estimated scf accuracy    <       0.15844683 Ry

     total magnetization       =    -0.73    -0.96    -1.19 Bohr mag/cell
     absolute magnetization    =     1.70 Bohr mag/cell
     Magnetic field            =  -0.0395191  -0.0499928  -0.0616137 Ry
     lambda                    =       0.50 Ry

     iteration #  9     ecut=    25.00 Ry     beta=0.30
     Davidson diagonalization with overlap
     ethr =  3.37E-05,  avg # of iterations =  2.0
      External magnetic field:      -0.07154     -0.09400     -0.11704

     total cpu time spent up to now is        6.8 secs

     total energy              =     -55.86918236 Ry
     Harris-Foulkes estimate   =     -55.65618287 Ry
     estimated scf accuracy    <       0.16055203 Ry

     total magnetization       =    -0.78    -0.96    -1.18 Bohr mag/cell
     absolute magnetization    =     1.71 Bohr mag/cell
     Magnetic field            =  -0.0715409  -0.0940001  -0.1170410 Ry
     lambda                    =       0.50 Ry

     iteration # 10     ecut=    25.00 Ry     beta=0.30
     Davidson diagonalization with overlap
     ethr =  3.37E-05,  avg # of iterations =  1.7
      External magnetic field:      -0.00267     -0.00356     -0.00447

     total cpu time spent up to now is        7.2 secs

     total energy              =     -55.27821075 Ry
     Harris-Foulkes estimate   =     -55.92610571 Ry
     estimated scf accuracy    <       0.34895372 Ry

     total magnetization       =    -1.39    -1.82    -2.26 Bohr mag/cell
     absolute magnetization    =     3.22 Bohr mag/cell
     Magnetic field            =  -0.0026686  -0.0035649  -0.0044662 Ry
     lambda                    =       0.50 Ry

     iteration # 11     ecut=    25.00 Ry     beta=0.30
     Davidson diagonalization with overlap
     ethr =  3.37E-05,  avg # of iterations =  1.2
      External magnetic field:       0.02313      0.03101      0.03870

     total cpu time spent up to now is        7.6 secs

     total energy              =     -55.55076135 Ry
     Harris-Foulkes estimate   =     -55.54455977 Ry
     estimated scf accuracy    <       0.00238258 Ry

     total magnetization       =     0.34     0.45     0.57 Bohr mag/cell
     absolute magnetization    =     0.83 Bohr mag/cell
     Magnetic field            =   0.0231300   0.0310070   0.0387023 Ry
     lambda                    =       0.50 Ry

     iteration # 12     ecut=    25.00 Ry     beta=0.30
     Davidson diagonalization with overlap
     ethr =  2.98E-05,  avg # of iterations =  1.4
      External magnetic field:       0.02685      0.03558      0.04472

     total cpu time spent up to now is        8.0 secs

     total energy              =     -55.59907055 Ry
     Harris-Foulkes estimate   =     -55.58730257 Ry
     estimated scf accuracy    <       0.05335097 Ry

     total magnetization       =     0.82     1.09     1.36 Bohr mag/cell
     absolute magnetization    =     1.93 Bohr mag/cell
     Magnetic field            =   0.0268471   0.0355772   0.0447198 Ry
     lambda                    =       0.50 Ry

     iteration # 13     ecut=    25.00 Ry     beta=0.30
     Davidson diagonalization with overlap
     ethr =  2.98E-05,  avg # of iterations =  1.0
      External magnetic field:      -0.00483     -0.01315     -0.00769

     total cpu time spent up to now is        8.4 secs

     total energy              =     -55.50151491 Ry
     Harris-Foulkes estimate   =     -55.59960381 Ry
     estimated scf accuracy    <       0.06121387 Ry

     total magnetization       =     0.87     1.16     1.45 Bohr mag/cell
     absolute magnetization    =     2.05 Bohr mag/cell
     Magnetic field            =  -0.0048331  -0.0131538  -0.0076874 Ry
     lambda                    =       0.50 Ry

     iteration # 14     ecut=    25.00 Ry     beta=0.30
     Davidson diagonalization with overlap
     ethr =  2.98E-05,  avg # of iterations =  4.5
      External magnetic field:      -0.01355     -0.00193     -0.02473

     total cpu time spent up to now is        9.0 secs

     total energy              =     -55.54402048 Ry
     Harris-Foulkes estimate   =     -55.54629562 Ry
     estimated scf accuracy    <       0.00348385 Ry

     total magnetization       =     0.28     0.12     0.48 Bohr mag/cell
     absolute magnetization    =     0.62 Bohr mag/cell
     Magnetic field            =  -0.0135495  -0.0019306  -0.0247308 Ry
     lambda                    =       0.50 Ry

     iteration # 15     ecut=    25.00 Ry     beta=0.30
     Davidson diagonalization with overlap
     ethr =  2.98E-05,  avg # of iterations =  3.5
      External magnetic field:      -0.00845     -0.01089     -0.01381

     total cpu time spent up to now is        9.5 secs

     total energy              =     -55.54203365 Ry
     Harris-Foulkes estimate   =     -55.55253386 Ry
     estimated scf accuracy    <       0.02037004 Ry

     total magnetization       =     0.01     0.62    -0.06 Bohr mag/cell
     absolute magnetization    =     0.71 Bohr mag/cell
     Magnetic field            =  -0.0084464  -0.0108948  -0.0138112 Ry
     lambda                    =       0.50 Ry

     iteration # 16     ecut=    25.00 Ry     beta=0.30
     Davidson diagonalization with overlap
     ethr =  2.98E-05,  avg # of iterations =  3.9
      External magnetic field:       0.00089      0.00115      0.00147

     total cpu time spent up to now is       10.0 secs

     total energy              =     -55.53935307 Ry
     Harris-Foulkes estimate   =     -55.54667214 Ry
     estimated scf accuracy    <       0.00334755 Ry

     total magnetization       =     0.15     0.22     0.26 Bohr mag/cell
     absolute magnetization    =     0.44 Bohr mag/cell
     Magnetic field            =   0.0008881   0.0011455   0.0014737 Ry
     lambda                    =       0.50 Ry

     iteration # 17     ecut=    25.00 Ry     beta=0.30
     Davidson diagonalization with overlap
     ethr =  2.98E-05,  avg # of iterations =  1.0
      External magnetic field:       0.00110     -0.00206     -0.00389

     total cpu time spent up to now is       10.4 secs

     total energy              =     -55.54493679 Ry
     Harris-Foulkes estimate   =     -55.54664921 Ry
     estimated scf accuracy    <       0.00457247 Ry

     total magnetization       =     0.46     0.61     0.76 Bohr mag/cell
     absolute magnetization    =     1.09 Bohr mag/cell
     Magnetic field            =   0.0011013  -0.0020619  -0.0038893 Ry
     lambda                    =       0.50 Ry

     iteration # 18     ecut=    25.00 Ry     beta=0.30
     Davidson diagonalization with overlap
     ethr =  2.98E-05,  avg # of iterations =  1.0
      External magnetic field:       0.00570      0.00759      0.00958

     total cpu time spent up to now is       10.8 secs

     total energy              =     -55.54826910 Ry
     Harris-Foulkes estimate   =     -55.54547863 Ry
     estimated scf accuracy    <       0.00206166 Ry

     total magnetization       =     0.48     0.51     0.60 Bohr mag/cell
     absolute magnetization    =     0.94 Bohr mag/cell
     Magnetic field            =   0.0057041   0.0075886   0.0095825 Ry
     lambda                    =       0.50 Ry

     iteration # 19     ecut=    25.00 Ry     beta=0.30
     Davidson diagonalization with overlap
     ethr =  2.58E-05,  avg # of iterations =  1.0
      External magnetic field:       0.00585      0.00740      0.00993

     total cpu time spent up to now is       11.2 secs

     total energy              =     -55.55235428 Ry
     Harris-Foulkes estimate   =     -55.55228992 Ry
     estimated scf accuracy    <       0.01362061 Ry

     total magnetization       =     0.58     0.78     0.97 Bohr mag/cell
     absolute magnetization    =     1.38 Bohr mag/cell
     Magnetic field            =   0.0058526   0.0074019   0.0099334 Ry
     lambda                    =       0.50 Ry

     iteration # 20     ecut=    25.00 Ry     beta=0.30
     Davidson diagonalization with overlap
     ethr =  2.58E-05,  avg # of iterations =  1.0
      External magnetic field:      -0.00401     -0.00518     -0.00648

     total cpu time spent up to now is       11.5 secs

     total energy              =     -55.53887111 Ry
     Harris-Foulkes estimate   =     -55.55236229 Ry
     estimated scf accuracy    <       0.01370880 Ry

     total magnetization       =     0.59     0.77     0.98 Bohr mag/cell
     absolute magnetization    =     1.38 Bohr mag/cell
     Magnetic field            =  -0.0040102  -0.0051832  -0.0064782 Ry
     lambda                    =       0.50 Ry

     iteration # 21     ecut=    25.00 Ry     beta=0.30
     Davidson diagonalization with overlap
     ethr =  2.58E-05,  avg # of iterations =  1.0
      External magnetic field:      -0.00296     -0.00379     -0.00471

     total cpu time spent up to now is       11.9 secs

     total energy              =     -55.54492290 Ry
     Harris-Foulkes estimate   =     -55.54483057 Ry
     estimated scf accuracy    <       0.00019620 Ry

     total magnetization       =     0.32     0.43     0.54 Bohr mag/cell
     absolute magnetization    =     0.80 Bohr mag/cell
     Magnetic field            =  -0.0029591  -0.0037894  -0.0047050 Ry
     lambda                    =       0.50 Ry

     iteration # 22     ecut=    25.00 Ry     beta=0.30
     Davidson diagonalization with overlap
     ethr =  2.45E-06,  avg # of iterations =  1.0
      External magnetic field:      -0.00294     -0.00372     -0.00471

     total cpu time spent up to now is       12.3 secs

     total energy              =     -55.54500292 Ry
     Harris-Foulkes estimate   =     -55.54500747 Ry
     estimated scf accuracy    <       0.00058465 Ry

     total magnetization       =     0.35     0.48     0.60 Bohr mag/cell
     absolute magnetization    =     0.87 Bohr mag/cell
     Magnetic field            =  -0.0029370  -0.0037156  -0.0047121 Ry
     lambda                    =       0.50 Ry

     iteration # 23     ecut=    25.00 Ry     beta=0.30
     Davidson diagonalization with overlap
     ethr =  2.45E-06,  avg # of iterations =  1.0
      External magnetic field:      -0.00563     -0.00754     -0.00921

     total cpu time spent up to now is       12.7 secs

     total energy              =     -55.54429558 Ry
     Harris-Foulkes estimate   =     -55.54500511 Ry
     estimated scf accuracy    <       0.00052172 Ry

     total magnetization       =     0.36     0.48     0.60 Bohr mag/cell
     absolute magnetization    =     0.88 Bohr mag/cell
     Magnetic field            =  -0.0056313  -0.0075390  -0.0092092 Ry
     lambda                    =       0.50 Ry

     iteration # 24     ecut=    25.00 Ry     beta=0.30
     Davidson diagonalization with overlap
     ethr =  2.45E-06,  avg # of iterations =  1.0
      External magnetic field:      -0.00647     -0.00849     -0.01070

     total cpu time spent up to now is       13.1 secs

     total energy              =     -55.54506273 Ry
     Harris-Foulkes estimate   =     -55.54489747 Ry
     estimated scf accuracy    <       0.00019737 Ry

     total magnetization       =     0.27     0.36     0.46 Bohr mag/cell
     absolute magnetization    =     0.69 Bohr mag/cell
     Magnetic field            =  -0.0064688  -0.0084880  -0.0106966 Ry
     lambda                    =       0.50 Ry

     iteration # 25     ecut=    25.00 Ry     beta=0.30
     Davidson diagonalization with overlap
     ethr =  2.45E-06,  avg # of iterations =  1.0
      External magnetic field:      -0.00476     -0.00673     -0.00779

     total cpu time spent up to now is       13.5 secs

     total energy              =     -55.54459033 Ry
     Harris-Foulkes estimate   =     -55.54511792 Ry
     estimated scf accuracy    <       0.00061430 Ry

     total magnetization       =     0.24     0.33     0.41 Bohr mag/cell
     absolute magnetization    =     0.64 Bohr mag/cell
     Magnetic field            =  -0.0047558  -0.0067339  -0.0077855 Ry
     lambda                    =       0.50 Ry

     iteration # 26     ecut=    25.00 Ry     beta=0.30
     Davidson diagonalization with overlap
     ethr =  2.45E-06,  avg # of iterations =  1.0
      External magnetic field:      -0.00430     -0.00596     -0.00749

     total cpu time spent up to now is       13.8 secs

     total energy              =     -55.54476896 Ry
     Harris-Foulkes estimate   =     -55.54479890 Ry
     estimated scf accuracy    <       0.00001920 Ry

     total magnetization       =     0.30     0.38     0.50 Bohr mag/cell
     absolute magnetization    =     0.74 Bohr mag/cell
     Magnetic field            =  -0.0042961  -0.0059611  -0.0074862 Ry
     lambda                    =       0.50 Ry

     iteration # 27     ecut=    25.00 Ry     beta=0.30
     Davidson diagonalization with overlap
     ethr =  2.40E-07,  avg # of iterations =  1.0
      External magnetic field:      -0.00456     -0.00603     -0.00747

     total cpu time spent up to now is       14.2 secs

     total energy              =     -55.54478197 Ry
     Harris-Foulkes estimate   =     -55.54478305 Ry
     estimated scf accuracy    <       0.00000341 Ry

     total magnetization       =     0.31     0.41     0.51 Bohr mag/cell
     absolute magnetization    =     0.77 Bohr mag/cell
     Magnetic field            =  -0.0045613  -0.0060311  -0.0074679 Ry
     lambda                    =       0.50 Ry

     iteration # 28     ecut=    25.00 Ry     beta=0.30
     Davidson diagonalization with overlap
     ethr =  4.26E-08,  avg # of iterations =  1.0
      External magnetic field:      -0.00503     -0.00673     -0.00840

     total cpu time spent up to now is       14.6 secs

     total energy              =     -55.54479378 Ry
     Harris-Foulkes estimate   =     -55.54478327 Ry
     estimated scf accuracy    <       0.00000096 Ry

     total magnetization       =     0.30     0.41     0.51 Bohr mag/cell
     absolute magnetization    =     0.76 Bohr mag/cell
     Magnetic field            =  -0.0050348  -0.0067319  -0.0083962 Ry
     lambda                    =       0.50 Ry

     iteration # 29     ecut=    25.00 Ry     beta=0.30
     Davidson diagonalization with overlap
     ethr =  1.20E-08,  avg # of iterations =  1.1
      External magnetic field:      -0.00449     -0.00600     -0.00749

     total cpu time spent up to now is       15.0 secs

     total energy              =     -55.54475932 Ry
     Harris-Foulkes estimate   =     -55.54481694 Ry
     estimated scf accuracy    <       0.00004199 Ry

     total magnetization       =     0.29     0.38     0.48 Bohr mag/cell
     absolute magnetization    =     0.73 Bohr mag/cell
     Magnetic field            =  -0.0044939  -0.0059973  -0.0074938 Ry
     lambda                    =       0.50 Ry

     iteration # 30     ecut=    25.00 Ry     beta=0.30
     Davidson diagonalization with overlap
     ethr =  1.20E-08,  avg # of iterations =  1.4
      External magnetic field:      -0.00454     -0.00606     -0.00757

     total cpu time spent up to now is       15.4 secs

     total energy              =     -55.54478369 Ry
     Harris-Foulkes estimate   =     -55.54478294 Ry
     estimated scf accuracy    <       0.00000049 Ry

     total magnetization       =     0.31     0.41     0.51 Bohr mag/cell
     absolute magnetization    =     0.76 Bohr mag/cell
     Magnetic field            =  -0.0045402  -0.0060582  -0.0075672 Ry
     lambda                    =       0.50 Ry

     iteration # 31     ecut=    25.00 Ry     beta=0.30
     Davidson diagonalization with overlap
     ethr =  6.18E-09,  avg # of iterations =  1.0
      External magnetic field:      -0.00455     -0.00607     -0.00758

     total cpu time spent up to now is       15.8 secs

     total energy              =     -55.54478404 Ry
     Harris-Foulkes estimate   =     -55.54478385 Ry
     estimated scf accuracy    <       0.00000001 Ry

     total magnetization       =     0.30     0.41     0.51 Bohr mag/cell
     absolute magnetization    =     0.76 Bohr mag/cell
     Magnetic field            =  -0.0045492  -0.0060674  -0.0075806 Ry
     lambda                    =       0.50 Ry

     iteration # 32     ecut=    25.00 Ry     beta=0.30
     Davidson diagonalization with overlap
     ethr =  1.35E-10,  avg # of iterations =  3.8
      External magnetic field:      -0.00455     -0.00601     -0.00763

 ==============================================================================
     atom number    1 relative position :    0.0000   0.0000   0.0000
     charge :     6.412141
     magnetization :          0.312329    0.416385    0.520594
     magnetization/charge:    0.048709    0.064937    0.081189
     polar coord.: r, theta, phi [deg] :     0.736168   44.995111   53.126510

 ==============================================================================

     total cpu time spent up to now is       16.4 secs

     End of self-consistent calculation

          k = 0.0000 0.0000 0.2500 (   148 PWs)   bands (ev):

     7.0426   7.2420  12.7594  12.7594  13.0874  13.0874  13.1316  13.4839
    13.7020  14.2562  14.6495  15.2721  36.1708  36.3037  38.5018  38.5021

          k = 0.0000-0.2500 0.5000 (   151 PWs)   bands (ev):

    10.0424  10.1070  12.0741  12.3671  12.4514  12.7149  14.0060  14.4647
    15.2626  15.6866  15.9319  16.3129  26.5052  26.5553  33.9091  34.1124

          k =-0.2500 0.2500 0.2500 (   159 PWs)   bands (ev):

     9.2500   9.4066  11.8380  11.8380  12.1232  12.1232  14.3919  14.3919
    14.9863  14.9863  15.4336  15.7935  31.7725  31.7725  31.8291  31.8291

          k =-0.2500 0.7500-0.2500 (   146 PWs)   bands (ev):

    11.3565  11.3565  11.6389  11.6389  11.8381  12.0834  14.8006  14.8006
    15.2401  15.2401  22.6998  22.6998  22.7908  22.7908  25.2067  25.2215

          k = 0.5000-0.5000 0.2500 (   150 PWs)   bands (ev):

    10.5873  10.7503  11.3660  11.6097  12.9468  13.0623  14.5329  14.6520
    15.1121  15.2882  19.4975  19.6164  23.3528  23.4708  29.5319  29.5952

          k = 0.0000 0.0000 0.7500 (   144 PWs)   bands (ev):

    10.4085  10.5101  10.6723  10.8527  14.5280  14.5280  14.8952  14.8952
    15.1234  15.5461  20.2841  20.3238  27.6812  27.6812  27.7979  27.7979

          k = 0.2500 0.0000 0.0000 (   148 PWs)   bands (ev):

     7.0426   7.2420  12.7594  12.7594  13.0874  13.0874  13.1316  13.4839
    13.7020  14.2562  14.6496  15.2721  36.1708  36.3037  38.5017  38.5018

          k = 0.0000 0.2500 0.0000 (   148 PWs)   bands (ev):

     7.0426   7.2420  12.7594  12.7594  13.0874  13.0874  13.1316  13.4839
    13.7020  14.2562  14.6495  15.2721  36.1708  36.3037  38.5017  38.5017

          k = 0.0000-0.2500-0.5000 (   151 PWs)   bands (ev):

    10.0424  10.1070  12.0741  12.3671  12.4514  12.7149  14.0060  14.4647
    15.2626  15.6866  15.9319  16.3129  26.5052  26.5553  33.9091  34.1124

          k =-0.2500 0.0000-0.5000 (   151 PWs)   bands (ev):

    10.0424  10.1070  12.0741  12.3671  12.4514  12.7149  14.0060  14.4647
    15.2626  15.6866  15.9319  16.3129  26.5052  26.5553  33.9091  34.1124

          k = 0.2500 0.0000-0.5000 (   151 PWs)   bands (ev):

    10.0424  10.1071  12.0741  12.3671  12.4514  12.7149  14.0060  14.4647
    15.2626  15.6866  15.9319  16.3129  26.5052  26.5553  33.9091  34.1124

          k = 0.5000 0.2500 0.0000 (   151 PWs)   bands (ev):

    10.0424  10.1071  12.0741  12.3671  12.4514  12.7149  14.0060  14.4647
    15.2626  15.6866  15.9320  16.3129  26.5052  26.5553  33.9091  34.1124

          k =-0.5000 0.2500 0.0000 (   151 PWs)   bands (ev):

    10.0424  10.1070  12.0741  12.3671  12.4514  12.7149  14.0060  14.4647
    15.2626  15.6866  15.9320  16.3129  26.5052  26.5553  33.9091  34.1124

          k = 0.0000 0.5000-0.2500 (   151 PWs)   bands (ev):

    10.0424  10.1070  12.0741  12.3671  12.4514  12.7149  14.0060  14.4647
    15.2626  15.6866  15.9319  16.3129  26.5052  26.5553  33.9091  34.1124

          k = 0.0000 0.5000 0.2500 (   151 PWs)   bands (ev):

    10.0424  10.1070  12.0741  12.3671  12.4514  12.7149  14.0060  14.4647
    15.2626  15.6866  15.9319  16.3129  26.5052  26.5553  33.9091  34.1124

          k =-0.2500 0.5000 0.0000 (   151 PWs)   bands (ev):

    10.0424  10.1071  12.0741  12.3671  12.4514  12.7149  14.0060  14.4647
    15.2626  15.6866  15.9320  16.3129  26.5052  26.5553  33.9091  34.1124

          k = 0.2500 0.5000 0.0000 (   151 PWs)   bands (ev):

    10.0424  10.1071  12.0741  12.3671  12.4514  12.7149  14.0060  14.4647
    15.2626  15.6866  15.9320  16.3129  26.5052  26.5553  33.9091  34.1124

          k = 0.5000 0.0000-0.2500 (   151 PWs)   bands (ev):

    10.0424  10.1070  12.0741  12.3671  12.4514  12.7149  14.0060  14.4647
    15.2626  15.6866  15.9320  16.3129  26.5052  26.5553  33.9091  34.1124

          k = 0.5000 0.0000 0.2500 (   151 PWs)   bands (ev):

    10.0424  10.1070  12.0741  12.3671  12.4514  12.7149  14.0060  14.4647
    15.2626  15.6866  15.9320  16.3129  26.5052  26.5553  33.9091  34.1124

          k = 0.2500 0.2500-0.2500 (   159 PWs)   bands (ev):

     9.2500   9.4066  11.8380  11.8380  12.1231  12.1232  14.3919  14.3919
    14.9863  14.9863  15.4336  15.7935  31.7725  31.7725  31.8291  31.8291

          k =-0.2500-0.2500-0.2500 (   159 PWs)   bands (ev):

     9.2500   9.4066  11.8380  11.8380  12.1231  12.1232  14.3919  14.3919
    14.9863  14.9863  15.4336  15.7935  31.7725  31.7725  31.8291  31.8291

          k =-0.2500 0.2500-0.2500 (   159 PWs)   bands (ev):

     9.2500   9.4066  11.8380  11.8380  12.1231  12.1232  14.3919  14.3919
    14.9863  14.9863  15.4336  15.7935  31.7725  31.7725  31.8291  31.8291

          k = 0.2500 0.7500 0.2500 (   146 PWs)   bands (ev):

    11.3565  11.3565  11.6389  11.6389  11.8381  12.0834  14.8006  14.8006
    15.2401  15.2401  22.6998  22.6998  22.7908  22.7908  25.2067  25.2215

          k =-0.2500-0.7500 0.2500 (   146 PWs)   bands (ev):

    11.3565  11.3565  11.6389  11.6389  11.8381  12.0834  14.8006  14.8006
    15.2401  15.2401  22.6998  22.6998  22.7908  22.7908  25.2067  25.2215

          k = 0.7500-0.2500 0.2500 (   146 PWs)   bands (ev):

    11.3565  11.3565  11.6389  11.6389  11.8381  12.0834  14.8006  14.8006
    15.2401  15.2401  22.6998  22.6998  22.7908  22.7908  25.2067  25.2215

          k =-0.5000-0.5000-0.2500 (   150 PWs)   bands (ev):

    10.5873  10.7503  11.3660  11.6097  12.9468  13.0623  14.5329  14.6520
    15.1121  15.2882  19.4975  19.6164  23.3528  23.4708  29.5319  29.5952

          k = 0.2500 0.5000 0.5000 (   150 PWs)   bands (ev):

    10.5873  10.7503  11.3660  11.6097  12.9468  13.0623  14.5329  14.6519
    15.1121  15.2882  19.4975  19.6164  23.3528  23.4708  29.5319  29.5952

          k =-0.2500 0.5000-0.5000 (   150 PWs)   bands (ev):

    10.5873  10.7503  11.3660  11.6097  12.9468  13.0623  14.5329  14.6519
    15.1121  15.2882  19.4975  19.6164  23.3528  23.4708  29.5319  29.5952

          k =-0.5000 0.2500-0.5000 (   150 PWs)   bands (ev):

    10.5873  10.7503  11.3660  11.6097  12.9468  13.0623  14.5329  14.6519
    15.1121  15.2882  19.4975  19.6164  23.3528  23.4708  29.5319  29.5952

          k =-0.5000-0.2500 0.5000 (   150 PWs)   bands (ev):

    10.5873  10.7503  11.3660  11.6097  12.9468  13.0623  14.5329  14.6519
    15.1121  15.2882  19.4975  19.6164  23.3528  23.4708  29.5319  29.5952

          k = 0.7500 0.0000 0.0000 (   144 PWs)   bands (ev):

    10.4085  10.5101  10.6722  10.8527  14.5280  14.5280  14.8952  14.8952
    15.1234  15.5461  20.2841  20.3238  27.6812  27.6812  27.7979  27.7979

          k = 0.0000 0.7500 0.0000 (   144 PWs)   bands (ev):

    10.4085  10.5101  10.6723  10.8527  14.5280  14.5280  14.8952  14.8952
    15.1234  15.5461  20.2841  20.3238  27.6811  27.6812  27.7979  27.7979

     the Fermi energy is    14.8545 ev

!    total energy              =     -55.54478405 Ry
     Harris-Foulkes estimate   =     -55.54478405 Ry
     estimated scf accuracy    <          4.7E-10 Ry

     The total energy is the sum of the following terms:

     one-electron contribution =       8.97517709 Ry
     hartree contribution      =       6.02997355 Ry
     xc contribution           =     -25.89292174 Ry
     ewald contribution        =     -44.64461207 Ry
     smearing contrib. (-TS)   =      -0.01240089 Ry

     total magnetization       =     0.30     0.41     0.51 Bohr mag/cell
     absolute magnetization    =     0.76 Bohr mag/cell
     Magnetic field            =  -0.0045486  -0.0060065  -0.0076292 Ry
     lambda                    =       0.50 Ry

     convergence has been achieved in  32 iterations

     Writing output data file pwscf.save

     init_run     :      0.51s CPU      0.53s WALL (       1 calls)
     electrons    :     14.77s CPU     15.82s WALL (       1 calls)

     Called by init_run:
     wfcinit      :      0.11s CPU      0.12s WALL (       1 calls)
     potinit      :      0.01s CPU      0.02s WALL (       1 calls)

     Called by electrons:
     c_bands      :     11.18s CPU     11.52s WALL (      32 calls)
     sum_band     :      2.74s CPU      3.44s WALL (      32 calls)
     v_of_rho     :      0.29s CPU      0.28s WALL (      33 calls)
     newd         :      0.41s CPU      0.42s WALL (      33 calls)
     mix_rho      :      0.11s CPU      0.11s WALL (      32 calls)

     Called by c_bands:
     init_us_2    :      0.17s CPU      0.18s WALL (    2080 calls)
     cegterg      :     10.81s CPU     10.87s WALL (    1024 calls)

     Called by sum_band:
     sum_band:bec :      0.05s CPU      0.05s WALL (    1024 calls)
     addusdens    :      0.82s CPU      1.50s WALL (      32 calls)

     Called by *egterg:
     h_psi        :      6.36s CPU      6.44s WALL (    3385 calls)
     s_psi        :      0.40s CPU      0.42s WALL (    3385 calls)
     g_psi        :      0.08s CPU      0.08s WALL (    2329 calls)
     cdiaghg      :      1.80s CPU      1.78s WALL (    3353 calls)

     Called by h_psi:
     add_vuspsi   :      0.46s CPU      0.44s WALL (    3385 calls)

     General routines
     calbec       :      0.54s CPU      0.57s WALL (    4409 calls)
     fft          :      0.33s CPU      0.32s WALL (    1067 calls)
     ffts         :      0.01s CPU      0.01s WALL (     260 calls)
     fftw         :      4.66s CPU      4.71s WALL (  186912 calls)
     interpolate  :      0.10s CPU      0.10s WALL (     260 calls)
     davcio       :      0.00s CPU      0.00s WALL (      32 calls)


     PWSCF        :    15.40s CPU        16.50s WALL


   This run was terminated on:  21:28:50  24Apr2016            

=------------------------------------------------------------------------------=
   JOB DONE.
=------------------------------------------------------------------------------=
