
     Program PWSCF v.6.beta (svn rev. 12992:12993) starts on 21Sep2016 at 13:58:17 

     This program is part of the open-source Quantum ESPRESSO suite
     for quantum simulation of materials; please cite
         "P. Giannozzi et al., J. Phys.:Condens. Matter 21 395502 (2009);
          URL http://www.quantum-espresso.org", 
     in publications or presentations arising from this work. More details at
     http://www.quantum-espresso.org/quote

           HOST :    @host@
           ARCH :    x86_64
             CC :    cc
            CPP :    cpp
            F90 :    mpif90
            F77 :    gfortran
         DFLAGS :    -D__GFORTRAN -D__STD_F95 -D__FFTW -D__MPI -D__XSD
      BLAS LIBS :    
    LAPACK LIBS :    $(TOPDIR)/LAPACK/liblapack.a $(TOPDIR)/LAPACK/libblas.a
       FFT LIBS :    
      MASS LIBS :    

     Parallel version (MPI), running on     1 processors
     Waiting for input...
     Reading input from standard input
     Message from routine read_cards :
     DEPRECATED: no units specified in CELL_PARAMETERS card

     Current dimensions of program PWSCF are:
     Max number of different atomic species (ntypx) = 10
     Max number of k-points (npk) =  40000
     Max angular momentum in pseudopotentials (lmaxx) =  3
               file O.pz-rrkjus.UPF: wavefunction(s)  2S renormalized
               file Fe.pz-nd-rrkjus.UPF: wavefunction(s)  4S renormalized
               file Fe.pz-nd-rrkjus.UPF: wavefunction(s)  4S renormalized

     Subspace diagonalization in iterative solution of the eigenvalue problem:
     a serial algorithm will be used


     G-vector sticks info
     --------------------
     sticks:   dense  smooth     PW     G-vecs:    dense   smooth      PW
     Sum        1061     539    163                17255     6111    1081



     bravais-lattice index     =            0
     lattice parameter (alat)  =       8.1900  a.u.
     unit-cell volume          =     274.6766 (a.u.)^3
     number of atoms/cell      =            4
     number of atomic types    =            3
     number of electrons       =        28.00
     number of Kohn-Sham states=           20
     kinetic-energy cutoff     =      30.0000  Ry
     charge density cutoff     =     240.0000  Ry
     convergence threshold     =      1.0E-06
     mixing beta               =       0.3000
     number of iterations used =            8  plain     mixing
     Exchange-correlation      =  SLA  PZ   NOGX NOGC ( 1  1  0  0 0 0)

     celldm(1)=   8.190000  celldm(2)=   0.000000  celldm(3)=   0.000000
     celldm(4)=   0.000000  celldm(5)=   0.000000  celldm(6)=   0.000000

     crystal axes: (cart. coord. in units of alat)
               a(1) = (   0.500000   0.500000   1.000000 )  
               a(2) = (   0.500000   1.000000   0.500000 )  
               a(3) = (   1.000000   0.500000   0.500000 )  

     reciprocal axes: (cart. coord. in units 2 pi/alat)
               b(1) = ( -0.500000 -0.500000  1.500000 )  
               b(2) = ( -0.500000  1.500000 -0.500000 )  
               b(3) = (  1.500000 -0.500000 -0.500000 )  


     PseudoPot. # 1 for O  read from file:
     /home/pietro/trunk/espresso/pseudo/O.pz-rrkjus.UPF
     MD5 check sum: 24fb942a68ef5d262e498166c462ef4a
     Pseudo is Ultrasoft, Zval =  6.0
     Generated by new atomic code, or converted to UPF format
     Using radial grid of 1269 points,  4 beta functions with: 
                l(1) =   0
                l(2) =   0
                l(3) =   1
                l(4) =   1
     Q(r) pseudized with 0 coefficients 


     PseudoPot. # 2 for Fe read from file:
     /home/pietro/trunk/espresso/pseudo/Fe.pz-nd-rrkjus.UPF
     MD5 check sum: 2e083728ad07023434bc1cc596eb954d
     Pseudo is Ultrasoft + core correction, Zval =  8.0
     Generated by new atomic code, or converted to UPF format
     Using radial grid of  957 points,  6 beta functions with: 
                l(1) =   0
                l(2) =   0
                l(3) =   1
                l(4) =   1
                l(5) =   2
                l(6) =   2
     Q(r) pseudized with 0 coefficients 


     PseudoPot. # 3 for Fe read from file:
     /home/pietro/trunk/espresso/pseudo/Fe.pz-nd-rrkjus.UPF
     MD5 check sum: 2e083728ad07023434bc1cc596eb954d
     Pseudo is Ultrasoft + core correction, Zval =  8.0
     Generated by new atomic code, or converted to UPF format
     Using radial grid of  957 points,  6 beta functions with: 
                l(1) =   0
                l(2) =   0
                l(3) =   1
                l(4) =   1
                l(5) =   2
                l(6) =   2
     Q(r) pseudized with 0 coefficients 


     atomic species   valence    mass     pseudopotential
        O1             6.00     1.00000     O ( 1.00)
        Fe1            8.00     1.00000     Fe( 1.00)
        Fe2            8.00     1.00000     Fe( 1.00)

     Starting magnetic structure 
     atomic species   magnetization
        O1           0.000
        Fe1          0.500
        Fe2         -0.500


     Simplified LDA+U calculation (l_max = 2) with parameters (eV):
     atomic species    L          U    alpha       J0     beta
        Fe1            2     0.0000   0.0000   0.0000   0.0000
        Fe2            2     0.0000   0.0000   0.0000   0.0000



     12 Sym. Ops., with inversion, found



   Cartesian axes

     site n.     atom                  positions (alat units)
         1           O1  tau(   1) = (   0.5000000   0.5000000   0.5000000  )
         2           O1  tau(   2) = (   1.5000000   1.5000000   1.5000000  )
         3           Fe1 tau(   3) = (   0.0000000   0.0000000   0.0000000  )
         4           Fe2 tau(   4) = (   1.0000000   1.0000000   1.0000000  )

     number of k points=     4  Marzari-Vanderbilt smearing, width (Ry)=  0.0100
                       cart. coord. in units 2pi/alat
        k(    1) = (   0.0000000   0.0000000   0.0000000), wk =   0.1250000
        k(    2) = (  -0.7500000   0.2500000   0.2500000), wk =   0.3750000
        k(    3) = (  -0.5000000  -0.5000000   0.5000000), wk =   0.3750000
        k(    4) = (  -0.2500000  -0.2500000  -0.2500000), wk =   0.1250000

     Dense  grid:    17255 G-vectors     FFT dimensions: (  50,  50,  50)

     Smooth grid:     6111 G-vectors     FFT dimensions: (  36,  36,  36)

     Estimated max dynamical RAM per process >      30.86Mb
     Generating pointlists ...
     new r_m :   0.2063 (alat units)  1.6892 (a.u.) for type    1
     new r_m :   0.2063 (alat units)  1.6892 (a.u.) for type    2
     new r_m :   0.2063 (alat units)  1.6892 (a.u.) for type    3

     Check: negative/imaginary core charge=   -0.000003    0.000000

     Initial potential from superposition of free atoms

     starting charge   27.99905, renormalised to   28.00000
     Number of +U iterations with fixed ns =  0
     Starting occupations:
 --- enter write_ns ---
 LDA+U parameters:
U( 2)     =  0.00000001
alpha( 2) =  0.00000000
U( 3)     =  0.00000001
alpha( 3) =  0.00000000
atom    3   Tr[ns(na)] (up, down, total) =   5.00000  1.00000  6.00000
   spin  1
    eigenvalues: 
  1.000  1.000  1.000  1.000  1.000
    eigenvectors:
  1.000  0.000  0.000  0.000  0.000
  0.000  1.000  0.000  0.000  0.000
  0.000  0.000  1.000  0.000  0.000
  0.000  0.000  0.000  1.000  0.000
  0.000  0.000  0.000  0.000  1.000
    occupations:
  1.000  0.000  0.000  0.000  0.000
  0.000  1.000  0.000  0.000  0.000
  0.000  0.000  1.000  0.000  0.000
  0.000  0.000  0.000  1.000  0.000
  0.000  0.000  0.000  0.000  1.000
   spin  2
    eigenvalues: 
  0.200  0.200  0.200  0.200  0.200
    eigenvectors:
  1.000  0.000  0.000  0.000  0.000
  0.000  1.000  0.000  0.000  0.000
  0.000  0.000  1.000  0.000  0.000
  0.000  0.000  0.000  1.000  0.000
  0.000  0.000  0.000  0.000  1.000
    occupations:
  0.200  0.000  0.000  0.000  0.000
  0.000  0.200  0.000  0.000  0.000
  0.000  0.000  0.200  0.000  0.000
  0.000  0.000  0.000  0.200  0.000
  0.000  0.000  0.000  0.000  0.200
atomic mag. moment =     4.000000
atom    4   Tr[ns(na)] (up, down, total) =   1.00000  5.00000  6.00000
   spin  1
    eigenvalues: 
  0.200  0.200  0.200  0.200  0.200
    eigenvectors:
  1.000  0.000  0.000  0.000  0.000
  0.000  1.000  0.000  0.000  0.000
  0.000  0.000  1.000  0.000  0.000
  0.000  0.000  0.000  1.000  0.000
  0.000  0.000  0.000  0.000  1.000
    occupations:
  0.200  0.000  0.000  0.000  0.000
  0.000  0.200  0.000  0.000  0.000
  0.000  0.000  0.200  0.000  0.000
  0.000  0.000  0.000  0.200  0.000
  0.000  0.000  0.000  0.000  0.200
   spin  2
    eigenvalues: 
  1.000  1.000  1.000  1.000  1.000
    eigenvectors:
  1.000  0.000  0.000  0.000  0.000
  0.000  1.000  0.000  0.000  0.000
  0.000  0.000  1.000  0.000  0.000
  0.000  0.000  0.000  1.000  0.000
  0.000  0.000  0.000  0.000  1.000
    occupations:
  1.000  0.000  0.000  0.000  0.000
  0.000  1.000  0.000  0.000  0.000
  0.000  0.000  1.000  0.000  0.000
  0.000  0.000  0.000  1.000  0.000
  0.000  0.000  0.000  0.000  1.000
atomic mag. moment =    -4.000000
N of occupied +U levels =   12.000000
 --- exit write_ns ---
 Atomic wfc used for LDA+U Projector are NOT orthogonalized
     Starting wfc are   20 randomized atomic wfcs

     total cpu time spent up to now is        2.2 secs

     per-process dynamical memory:    38.5 Mb

     Self-consistent Calculation

     iteration #  1     ecut=    30.00 Ry     beta=0.30
     Davidson diagonalization with overlap
     ethr =  1.00E-02,  avg # of iterations =  2.2
 --- enter write_ns ---
 LDA+U parameters:
U( 2)     =  0.00000001
alpha( 2) =  0.00000000
U( 3)     =  0.00000001
alpha( 3) =  0.00000000
atom    3   Tr[ns(na)] (up, down, total) =   4.96710  1.45736  6.42446
   spin  1
    eigenvalues: 
  0.987  0.987  0.997  0.997  0.998
    eigenvectors:
  0.001  0.919  0.068  0.012  0.000
  0.042  0.012  0.387  0.226  0.333
  0.038  0.015  0.010  0.603  0.333
  0.919  0.001  0.012  0.068  0.000
  0.000  0.053  0.523  0.091  0.333
    occupations:
  0.988  0.001  0.001 -0.000  0.002
  0.001  0.997  0.001  0.002 -0.001
  0.001  0.001  0.997 -0.002 -0.001
 -0.000  0.002 -0.002  0.988 -0.000
  0.002 -0.001 -0.001 -0.000  0.997
   spin  2
    eigenvalues: 
  0.200  0.200  0.336  0.336  0.385
    eigenvectors:
  0.165  0.830  0.005  0.000  0.000
  0.003  0.000  0.079  0.584  0.333
  0.001  0.002  0.272  0.392  0.333
  0.830  0.165  0.000  0.005  0.000
  0.001  0.003  0.644  0.019  0.333
    occupations:
  0.201 -0.004 -0.004 -0.000 -0.008
 -0.004  0.352  0.017 -0.007 -0.017
 -0.004  0.017  0.352  0.007 -0.017
 -0.000 -0.007  0.007  0.201 -0.000
 -0.008 -0.017 -0.017 -0.000  0.352
atomic mag. moment =     3.509743
atom    4   Tr[ns(na)] (up, down, total) =   1.45732  4.96692  6.42424
   spin  1
    eigenvalues: 
  0.200  0.200  0.336  0.336  0.385
    eigenvectors:
  0.125  0.870  0.005  0.000  0.000
  0.003  0.000  0.058  0.605  0.333
  0.001  0.002  0.306  0.357  0.333
  0.870  0.125  0.000  0.005  0.000
  0.000  0.003  0.631  0.033  0.333
    occupations:
  0.201 -0.004 -0.004 -0.000 -0.008
 -0.004  0.352  0.017 -0.007 -0.017
 -0.004  0.017  0.352  0.007 -0.017
 -0.000 -0.007  0.007  0.201 -0.000
 -0.008 -0.017 -0.017 -0.000  0.352
   spin  2
    eigenvalues: 
  0.987  0.987  0.997  0.997  0.998
    eigenvectors:
  0.001  0.920  0.050  0.029  0.000
  0.041  0.012  0.521  0.093  0.333
  0.038  0.015  0.009  0.605  0.333
  0.920  0.001  0.029  0.050  0.000
  0.000  0.053  0.391  0.223  0.333
    occupations:
  0.988  0.001  0.001 -0.000  0.002
  0.001  0.997  0.001  0.002 -0.001
  0.001  0.001  0.997 -0.002 -0.001
 -0.000  0.002 -0.002  0.988 -0.000
  0.002 -0.001 -0.001 -0.000  0.997
atomic mag. moment =    -3.509596
N of occupied +U levels =   12.848705
 --- exit write_ns ---

     total cpu time spent up to now is        3.3 secs

     total energy              =    -174.40733566 Ry
     Harris-Foulkes estimate   =    -175.24137352 Ry
     estimated scf accuracy    <       1.85167421 Ry

     total magnetization       =     0.00 Bohr mag/cell
     absolute magnetization    =     7.80 Bohr mag/cell

     iteration #  2     ecut=    30.00 Ry     beta=0.30
     Davidson diagonalization with overlap
     ethr =  6.61E-03,  avg # of iterations =  2.1

     total cpu time spent up to now is        4.5 secs

     total energy              =    -174.79858485 Ry
     Harris-Foulkes estimate   =    -174.82800805 Ry
     estimated scf accuracy    <       0.11167696 Ry

     total magnetization       =    -0.00 Bohr mag/cell
     absolute magnetization    =     6.82 Bohr mag/cell

     iteration #  3     ecut=    30.00 Ry     beta=0.30
     Davidson diagonalization with overlap
     ethr =  3.99E-04,  avg # of iterations =  3.0

     total cpu time spent up to now is        5.7 secs

     total energy              =    -174.82057085 Ry
     Harris-Foulkes estimate   =    -174.81816151 Ry
     estimated scf accuracy    <       0.01975685 Ry

     total magnetization       =    -0.01 Bohr mag/cell
     absolute magnetization    =     7.06 Bohr mag/cell

     iteration #  4     ecut=    30.00 Ry     beta=0.30
     Davidson diagonalization with overlap
     ethr =  7.06E-05,  avg # of iterations =  2.5

     total cpu time spent up to now is        6.8 secs

     total energy              =    -174.82138039 Ry
     Harris-Foulkes estimate   =    -174.82327699 Ry
     estimated scf accuracy    <       0.01085512 Ry

     total magnetization       =     0.15 Bohr mag/cell
     absolute magnetization    =     7.05 Bohr mag/cell

     iteration #  5     ecut=    30.00 Ry     beta=0.30
     Davidson diagonalization with overlap
     ethr =  3.88E-05,  avg # of iterations =  1.1

     total cpu time spent up to now is        7.9 secs

     total energy              =    -174.82121717 Ry
     Harris-Foulkes estimate   =    -174.82548688 Ry
     estimated scf accuracy    <       0.07000788 Ry

     total magnetization       =    -0.42 Bohr mag/cell
     absolute magnetization    =     7.07 Bohr mag/cell

     iteration #  6     ecut=    30.00 Ry     beta=0.30
     Davidson diagonalization with overlap
     ethr =  3.88E-05,  avg # of iterations =  1.0

     total cpu time spent up to now is        9.0 secs

     total energy              =    -174.82318070 Ry
     Harris-Foulkes estimate   =    -174.82306013 Ry
     estimated scf accuracy    <       0.00050250 Ry

     total magnetization       =    -0.02 Bohr mag/cell
     absolute magnetization    =     7.08 Bohr mag/cell

     iteration #  7     ecut=    30.00 Ry     beta=0.30
     Davidson diagonalization with overlap
     ethr =  1.79E-06,  avg # of iterations =  3.1

     total cpu time spent up to now is       10.2 secs

     total energy              =    -174.82327063 Ry
     Harris-Foulkes estimate   =    -174.82331197 Ry
     estimated scf accuracy    <       0.00047312 Ry

     total magnetization       =     0.04 Bohr mag/cell
     absolute magnetization    =     7.10 Bohr mag/cell

     iteration #  8     ecut=    30.00 Ry     beta=0.30
     Davidson diagonalization with overlap
     ethr =  1.69E-06,  avg # of iterations =  1.0

     total cpu time spent up to now is       11.3 secs

     total energy              =    -174.82330380 Ry
     Harris-Foulkes estimate   =    -174.82334106 Ry
     estimated scf accuracy    <       0.00071859 Ry

     total magnetization       =    -0.04 Bohr mag/cell
     absolute magnetization    =     7.09 Bohr mag/cell

     iteration #  9     ecut=    30.00 Ry     beta=0.30
     Davidson diagonalization with overlap
     ethr =  1.69E-06,  avg # of iterations =  1.0

     total cpu time spent up to now is       12.4 secs

     total energy              =    -174.82332742 Ry
     Harris-Foulkes estimate   =    -174.82332845 Ry
     estimated scf accuracy    <       0.00000532 Ry

     total magnetization       =     0.00 Bohr mag/cell
     absolute magnetization    =     7.10 Bohr mag/cell

     iteration # 10     ecut=    30.00 Ry     beta=0.30
     Davidson diagonalization with overlap
     ethr =  1.90E-08,  avg # of iterations =  4.0

     total cpu time spent up to now is       13.9 secs

     total energy              =    -174.82333165 Ry
     Harris-Foulkes estimate   =    -174.82333256 Ry
     estimated scf accuracy    <       0.00001283 Ry

     total magnetization       =    -0.01 Bohr mag/cell
     absolute magnetization    =     7.10 Bohr mag/cell

     iteration # 11     ecut=    30.00 Ry     beta=0.30
     Davidson diagonalization with overlap
     ethr =  1.90E-08,  avg # of iterations =  1.0

     Magnetic moment per site:
     atom:    1    charge:    5.8165    magn:   -0.0000    constr:    0.0000
     atom:    2    charge:    5.8165    magn:   -0.0000    constr:    0.0000
     atom:    3    charge:    5.7006    magn:    3.2853    constr:    0.0000
     atom:    4    charge:    5.7018    magn:   -3.2841    constr:    0.0000

     total cpu time spent up to now is       15.0 secs

     End of self-consistent calculation
 --- enter write_ns ---
 LDA+U parameters:
U( 2)     =  0.00000001
alpha( 2) =  0.00000000
U( 3)     =  0.00000001
alpha( 3) =  0.00000000
atom    3   Tr[ns(na)] (up, down, total) =   4.97125  1.96610  6.93735
   spin  1
    eigenvalues: 
  0.986  0.986  1.000  1.000  1.000
    eigenvectors:
  0.090  0.887  0.022  0.001  0.000
  0.014  0.001  0.258  0.394  0.333
  0.007  0.008  0.084  0.568  0.333
  0.887  0.090  0.001  0.022  0.000
  0.001  0.014  0.636  0.016  0.333
    occupations:
  0.986  0.001  0.001 -0.000  0.002
  0.001  1.000  0.000  0.001 -0.000
  0.001  0.000  1.000 -0.001 -0.000
 -0.000  0.001 -0.001  0.986 -0.000
  0.002 -0.000 -0.000 -0.000  1.000
   spin  2
    eigenvalues: 
  0.330  0.330  0.435  0.435  0.436
    eigenvectors:
  0.310  0.551  0.108  0.031  0.000
  0.091  0.001  0.001  0.574  0.333
  0.014  0.078  0.414  0.161  0.333
  0.551  0.310  0.031  0.108  0.000
  0.033  0.059  0.447  0.127  0.333
    occupations:
  0.345 -0.015 -0.015 -0.000 -0.030
 -0.015  0.426  0.005 -0.026 -0.005
 -0.015  0.005  0.426  0.026 -0.005
 -0.000 -0.026  0.026  0.345 -0.000
 -0.030 -0.005 -0.005 -0.000  0.426
atomic mag. moment =     3.005156
atom    4   Tr[ns(na)] (up, down, total) =   1.96751  4.97128  6.93879
   spin  1
    eigenvalues: 
  0.330  0.330  0.436  0.436  0.436
    eigenvectors:
  0.286  0.576  0.109  0.029  0.000
  0.091  0.001  0.001  0.573  0.333
  0.016  0.076  0.407  0.168  0.333
  0.576  0.286  0.029  0.109  0.000
  0.031  0.061  0.454  0.121  0.333
    occupations:
  0.345 -0.015 -0.015 -0.000 -0.030
 -0.015  0.426  0.005 -0.026 -0.005
 -0.015  0.005  0.426  0.026 -0.005
 -0.000 -0.026  0.026  0.345 -0.000
 -0.030 -0.005 -0.005 -0.000  0.426
   spin  2
    eigenvalues: 
  0.986  0.986  1.000  1.000  1.000
    eigenvectors:
  0.079  0.898  0.020  0.003  0.000
  0.014  0.001  0.381  0.271  0.333
  0.007  0.008  0.020  0.631  0.333
  0.898  0.079  0.003  0.020  0.000
  0.001  0.014  0.576  0.075  0.333
    occupations:
  0.986  0.001  0.001 -0.000  0.002
  0.001  1.000  0.000  0.001 -0.000
  0.001  0.000  1.000 -0.001 -0.000
 -0.000  0.001 -0.001  0.986 -0.000
  0.002 -0.000 -0.000 -0.000  1.000
atomic mag. moment =    -3.003771
N of occupied +U levels =   13.876135
 --- exit write_ns ---

 ------ SPIN UP ------------


          k = 0.0000 0.0000 0.0000 (   731 PWs)   bands (ev):

    -8.9511  -7.7444   2.7544   5.1266   5.1266   7.5791   7.6018   7.6018
     7.7692   7.7692   8.0687   8.9353   8.9353  11.0574  11.0574  11.2582
    11.5028  12.8924  12.8924  15.3701

          k =-0.7500 0.2500 0.2500 (   764 PWs)   bands (ev):

    -7.7685  -7.7491   3.6515   3.9144   4.7740   5.3295   5.3834   6.0721
     7.7211   8.2360   8.6438   9.6370   9.8385  10.4299  11.6994  11.8243
    12.6009  12.6285  17.2954  17.6039

          k =-0.5000-0.5000 0.5000 (   780 PWs)   bands (ev):

    -7.7597  -7.7481   2.7903   4.0535   5.1683   5.1907   6.4343   6.4465
     7.1549   8.2245   8.5554   9.3805   9.6040  10.7262  11.7097  11.8182
    13.0244  13.0944  15.3289  16.7008

          k =-0.2500-0.2500-0.2500 (   748 PWs)   bands (ev):

    -8.4125  -8.3784   4.4386   4.8309   5.5334   5.5334   6.5055   6.5055
     7.8399   7.8399   8.3034   9.9304   9.9304  10.9605  10.9734  10.9734
    12.4951  12.4951  13.9947  14.2647

 ------ SPIN DOWN ----------


          k = 0.0000 0.0000 0.0000 (   731 PWs)   bands (ev):

    -8.9512  -7.7444   2.7543   5.1263   5.1263   7.5790   7.6018   7.6018
     7.7683   7.7683   8.0680   8.9349   8.9349  11.0580  11.0580  11.2587
    11.5028  12.8927  12.8927  15.3701

          k =-0.7500 0.2500 0.2500 (   764 PWs)   bands (ev):

    -7.7685  -7.7491   3.6513   3.9145   4.7737   5.3295   5.3830   6.0721
     7.7203   8.2351   8.6429   9.6363   9.8379  10.4304  11.7000  11.8249
    12.6014  12.6290  17.2953  17.6039

          k =-0.5000-0.5000 0.5000 (   780 PWs)   bands (ev):

    -7.7597  -7.7481   2.7902   4.0535   5.1681   5.1904   6.4342   6.4464
     7.1542   8.2235   8.5545   9.3800   9.6034  10.7265  11.7103  11.8188
    13.0248  13.0948  15.3289  16.7007

          k =-0.2500-0.2500-0.2500 (   748 PWs)   bands (ev):

    -8.4125  -8.3784   4.4383   4.8310   5.5330   5.5330   6.5056   6.5056
     7.8390   7.8390   8.3027   9.9299   9.9299  10.9610  10.9740  10.9740
    12.4956  12.4956  13.9945  14.2648

     the Fermi energy is    10.9928 ev

!    total energy              =    -174.82333167 Ry
     Harris-Foulkes estimate   =    -174.82333220 Ry
     estimated scf accuracy    <       0.00000074 Ry

     The total energy is the sum of the following terms:

     one-electron contribution =       0.56366896 Ry
     hartree contribution      =      27.85892227 Ry
     xc contribution           =     -65.73562965 Ry
     ewald contribution        =    -137.50929535 Ry
     Hubbard energy            =       0.00000000 Ry
     smearing contrib. (-TS)   =      -0.00099790 Ry

     total magnetization       =     0.00 Bohr mag/cell
     absolute magnetization    =     7.10 Bohr mag/cell

     convergence has been achieved in  11 iterations

     Forces acting on atoms (Ry/au):

     atom    1 type  1   force =     0.00011367    0.00011367    0.00011367
     atom    2 type  1   force =    -0.00011367   -0.00011367   -0.00011367
     atom    3 type  2   force =     0.00000000   -0.00000000    0.00000000
     atom    4 type  3   force =    -0.00000000    0.00000000    0.00000000

     Total force =     0.000278     Total SCF correction =     0.001980
     SCF correction compared to forces is large: reduce conv_thr to get better values


     entering subroutine stress ...

          total   stress  (Ry/bohr**3)                   (kbar)     P= -238.30
  -0.00161995   0.00016343   0.00016343       -238.30     24.04     24.04
   0.00016343  -0.00161995   0.00016343         24.04   -238.30     24.04
   0.00016343   0.00016343  -0.00161995         24.04     24.04   -238.30


     Writing output data file feo_af.save

     init_run     :      1.97s CPU      2.03s WALL (       1 calls)
     electrons    :     11.33s CPU     12.86s WALL (       1 calls)
     forces       :      0.56s CPU      0.63s WALL (       1 calls)
     stress       :      1.70s CPU      1.92s WALL (       1 calls)

     Called by init_run:
     wfcinit      :      0.27s CPU      0.28s WALL (       1 calls)
     potinit      :      0.14s CPU      0.14s WALL (       1 calls)

     Called by electrons:
     c_bands      :      6.38s CPU      6.46s WALL (      11 calls)
     sum_band     :      2.92s CPU      3.67s WALL (      11 calls)
     v_of_rho     :      0.82s CPU      0.83s WALL (      12 calls)
     newd         :      1.29s CPU      2.02s WALL (      12 calls)
     mix_rho      :      0.12s CPU      0.13s WALL (      11 calls)

     Called by c_bands:
     init_us_2    :      0.13s CPU      0.14s WALL (     288 calls)
     cegterg      :      6.23s CPU      6.31s WALL (      88 calls)

     Called by sum_band:
     sum_band:bec :      0.01s CPU      0.00s WALL (      88 calls)
     addusdens    :      1.42s CPU      2.16s WALL (      11 calls)

     Called by *egterg:
     h_psi        :      5.46s CPU      5.52s WALL (     273 calls)
     s_psi        :      0.38s CPU      0.33s WALL (     361 calls)
     g_psi        :      0.01s CPU      0.01s WALL (     177 calls)
     cdiaghg      :      0.18s CPU      0.19s WALL (     265 calls)

     Called by h_psi:
     h_psi:pot    :      5.36s CPU      5.41s WALL (     273 calls)
     h_psi:calbec :      0.26s CPU      0.29s WALL (     273 calls)
     vloc_psi     :      4.85s CPU      4.89s WALL (     273 calls)
     add_vuspsi   :      0.26s CPU      0.23s WALL (     273 calls)
     vhpsi        :      0.09s CPU      0.10s WALL (     273 calls)

     General routines
     calbec       :      0.95s CPU      0.98s WALL (    2154 calls)
     fft          :      0.55s CPU      0.54s WALL (     204 calls)
     ffts         :      0.02s CPU      0.04s WALL (      46 calls)
     fftw         :      5.38s CPU      5.40s WALL (   10076 calls)
     interpolate  :      0.16s CPU      0.17s WALL (      46 calls)
     davcio       :      0.00s CPU      0.00s WALL (      16 calls)

     Parallel routines
     fft_scatter  :      0.22s CPU      0.22s WALL (   10326 calls)

     Hubbard U routines
     new_ns       :      0.04s CPU      0.03s WALL (      11 calls)
     vhpsi        :      0.09s CPU      0.10s WALL (     273 calls)
     force_hub    :      0.11s CPU      0.11s WALL (       1 calls)
     stres_hub    :      0.82s CPU      0.83s WALL (       1 calls)

     PWSCF        :    15.72s CPU        17.61s WALL


   This run was terminated on:  13:58:35  21Sep2016            

=------------------------------------------------------------------------------=
   JOB DONE.
=------------------------------------------------------------------------------=
