
     Program PWSCF v.6.7GPU starts on 19May2021 at 22:22:12 

     This program is part of the open-source Quantum ESPRESSO suite
     for quantum simulation of materials; please cite
         "P. Giannozzi et al., J. Phys.:Condens. Matter 21 395502 (2009);
         "P. Giannozzi et al., J. Phys.:Condens. Matter 29 465901 (2017);
         "P. Giannozzi et al., J. Chem. Phys. 152 154105 (2020);
          URL http://www.quantum-espresso.org", 
     in publications or presentations arising from this work. More details at
     http://www.quantum-espresso.org/quote

     Parallel version (MPI), running on     1 processors

     MPI processes distributed on     1 nodes
 Using CP units for velocities
     file H.pbe-vbc.UPF: wavefunction(s)  0S renormalized
     file O.pbe-mt.UPF: wavefunction(s)  4f renormalized
 Cannot open trajectory file. I can calculate only a single step from input file

     Subspace diagonalization in iterative solution of the eigenvalue problem:
     a serial algorithm will be used


     G-vector sticks info
     --------------------
     sticks:   dense  smooth     PW     G-vecs:    dense   smooth      PW
     Sum        1281    1281    325                34265    34265    4337

     Using Slab Decomposition



     bravais-lattice index     =            0
     lattice parameter (alat)  =      10.0000  a.u.
     unit-cell volume          =    1000.0000 (a.u.)^3
     number of atoms/cell      =            3
     number of atomic types    =            2
     number of electrons       =         8.00
     number of Kohn-Sham states=            4
     kinetic-energy cutoff     =      40.0000  Ry
     charge density cutoff     =     160.0000  Ry
     scf convergence threshold =      1.0E-11
     mixing beta               =       0.7000
     number of iterations used =            8  plain     mixing
     energy convergence thresh.=      0.0E+00
     force convergence thresh. =      0.0E+00
     Exchange-correlation= PBE
                           (   1   4   3   4   0   0   0)
     nstep                     =           50


     celldm(1)=  10.000000  celldm(2)=   0.000000  celldm(3)=   0.000000
     celldm(4)=   0.000000  celldm(5)=   0.000000  celldm(6)=   0.000000

     crystal axes: (cart. coord. in units of alat)
               a(1) = (  -0.562667   0.496057  -0.661312 )  
               a(2) = (  -0.122534   0.741076   0.660145 )  
               a(3) = (   0.817552   0.452475  -0.356195 )  

     reciprocal axes: (cart. coord. in units 2 pi/alat)
               b(1) = ( -0.562667  0.496057 -0.661312 )  
               b(2) = ( -0.122534  0.741076  0.660145 )  
               b(3) = (  0.817552  0.452475 -0.356195 )  


     PseudoPot. # 1 for H  read from file:
     ../../pseudo/H.pbe-vbc.UPF
     MD5 check sum: 65927ac6c32861be1224e6d13a099887
     Pseudo is Norm-conserving, Zval =  1.0
     Generated by new atomic code, or converted to UPF format
     Using radial grid of  325 points,  0 beta functions with: 

     PseudoPot. # 2 for O  read from file:
     ../../pseudo/O.pbe-mt.UPF
     MD5 check sum: 9f08e35405c7f04ae91f5f46c062ee95
     Pseudo is Norm-conserving, Zval =  6.0
     Generated using Fritz-Haber code, data in Abinit PP tables
     Using radial grid of  473 points,  3 beta functions with: 
                l(1) =   0
                l(2) =   1
                l(3) =   3

     atomic species   valence    mass     pseudopotential
        H              1.00     1.00000     H ( 1.00)
        O              6.00    16.00000     O ( 1.00)

     No symmetry found



   Cartesian axes

     site n.     atom                  positions (alat units)
         1           H   tau(   1) = (  -0.0000076   0.0000592   0.0001085  )
         2           H   tau(   2) = (  -0.0003859  -0.0001469  -0.0000065  )
         3           O   tau(   3) = (   0.0000246   0.0000055  -0.0000064  )

     number of k points=     1
                       cart. coord. in units 2pi/alat
        k(    1) = (   0.0000000   0.0000000   0.0000000), wk =   2.0000000

     Dense  grid:    17133 G-vectors     FFT dimensions: (  45,  45,  45)

     Estimated max dynamical RAM per process >      16.39 MB

     Initial potential from superposition of free atoms

     starting charge    7.99997, renormalised to    8.00000

     negative rho (up, down):  7.285E-04 0.000E+00
     Starting wfcs are   18 randomized atomic wfcs
     charge density from previous step

     negative rho (up, down):  7.285E-04 0.000E+00

     total cpu time spent up to now is        0.3 secs

     Self-consistent Calculation

     iteration #  1     ecut=    40.00 Ry     beta= 0.70
     Davidson diagonalization with overlap
     ethr =  1.00E-03,  avg # of iterations =  4.0

     negative rho (up, down):  8.956E-05 0.000E+00

     total cpu time spent up to now is        0.4 secs

     total energy              =    1570.01486927 Ry
     estimated scf accuracy    <       6.28105667 Ry

     iteration #  2     ecut=    40.00 Ry     beta= 0.70
     Davidson diagonalization with overlap
     ethr =  1.00E-02,  avg # of iterations =  2.0

     negative rho (up, down):  2.370E-05 0.000E+00

     total cpu time spent up to now is        0.5 secs

     total energy              =    1568.61904165 Ry
     estimated scf accuracy    <       0.50435033 Ry

     iteration #  3     ecut=    40.00 Ry     beta= 0.70
     Davidson diagonalization with overlap
     ethr =  6.30E-03,  avg # of iterations =  2.0

     negative rho (up, down):  5.758E-05 0.000E+00

     total cpu time spent up to now is        0.6 secs

     total energy              =    1568.44599959 Ry
     estimated scf accuracy    <       0.02331476 Ry

     iteration #  4     ecut=    40.00 Ry     beta= 0.70
     Davidson diagonalization with overlap
     ethr =  2.91E-04,  avg # of iterations =  2.0

     negative rho (up, down):  8.679E-08 0.000E+00

     total cpu time spent up to now is        0.7 secs

     total energy              =    1568.49539462 Ry
     estimated scf accuracy    <       0.08880293 Ry

     iteration #  5     ecut=    40.00 Ry     beta= 0.70
     Davidson diagonalization with overlap
     ethr =  2.91E-04,  avg # of iterations =  2.0

     total cpu time spent up to now is        0.7 secs

     total energy              =    1568.47989595 Ry
     estimated scf accuracy    <       0.00025728 Ry

     iteration #  6     ecut=    40.00 Ry     beta= 0.70
     Davidson diagonalization with overlap
     ethr =  3.22E-06,  avg # of iterations =  2.0

     total cpu time spent up to now is        0.8 secs

     total energy              =    1568.47979587 Ry
     estimated scf accuracy    <       0.00005305 Ry

     iteration #  7     ecut=    40.00 Ry     beta= 0.70
     Davidson diagonalization with overlap
     ethr =  6.63E-07,  avg # of iterations =  2.0

     total cpu time spent up to now is        0.9 secs

     total energy              =    1568.47979183 Ry
     estimated scf accuracy    <       0.00000356 Ry

     iteration #  8     ecut=    40.00 Ry     beta= 0.70
     Davidson diagonalization with overlap
     ethr =  4.44E-08,  avg # of iterations =  2.0

     total cpu time spent up to now is        0.9 secs

     total energy              =    1568.47979156 Ry
     estimated scf accuracy    <       0.00000026 Ry

     iteration #  9     ecut=    40.00 Ry     beta= 0.70
     Davidson diagonalization with overlap
     ethr =  3.21E-09,  avg # of iterations =  2.0

     total cpu time spent up to now is        1.0 secs

     total energy              =    1568.47979153 Ry
     estimated scf accuracy    <       0.00000002 Ry

     iteration # 10     ecut=    40.00 Ry     beta= 0.70
     Davidson diagonalization with overlap
     ethr =  2.16E-10,  avg # of iterations =  1.0

     total cpu time spent up to now is        1.1 secs

     total energy              =    1568.47979153 Ry
     estimated scf accuracy    <          4.5E-09 Ry

     iteration # 11     ecut=    40.00 Ry     beta= 0.70
     Davidson diagonalization with overlap
     ethr =  5.60E-11,  avg # of iterations =  1.0

     total cpu time spent up to now is        1.1 secs

     total energy              =    1568.47979153 Ry
     estimated scf accuracy    <          8.3E-10 Ry

     iteration # 12     ecut=    40.00 Ry     beta= 0.70
     Davidson diagonalization with overlap
     ethr =  1.03E-11,  avg # of iterations =  2.0

     total cpu time spent up to now is        1.2 secs

     total energy              =    1568.47979153 Ry
     estimated scf accuracy    <          6.9E-11 Ry

     iteration # 13     ecut=    40.00 Ry     beta= 0.70
     Davidson diagonalization with overlap
     ethr =  8.67E-13,  avg # of iterations =  1.0

     total cpu time spent up to now is        1.3 secs

     total energy              =    1568.47979153 Ry
     estimated scf accuracy    <          1.5E-11 Ry

     iteration # 14     ecut=    40.00 Ry     beta= 0.70
     Davidson diagonalization with overlap
     ethr =  1.83E-13,  avg # of iterations =  2.0

     total cpu time spent up to now is        1.4 secs

     End of self-consistent calculation

          k = 0.0000 0.0000 0.0000 (  2169 PWs)   bands (ev):

   -35.9023 -12.3678 -12.3529 -12.3521

     highest occupied level (ev):   -12.3521

!    total energy              =    1568.47979153 Ry
     estimated scf accuracy    <          5.2E-13 Ry

     convergence has been achieved in  14 iterations
     charge density from previous step

     total cpu time spent up to now is        1.4 secs

     Self-consistent Calculation

     iteration #  1     ecut=    40.00 Ry     beta= 0.70
     Davidson diagonalization with overlap
     ethr =  1.00E-07,  avg # of iterations =  5.0

     total cpu time spent up to now is        1.5 secs

     total energy              =   12294.76912978 Ry
     estimated scf accuracy    <       0.00165679 Ry

     iteration #  2     ecut=    40.00 Ry     beta= 0.70
     Davidson diagonalization with overlap
     ethr =  2.07E-05,  avg # of iterations =  2.0

     total cpu time spent up to now is        1.6 secs

     total energy              =   12294.76896343 Ry
     estimated scf accuracy    <       0.00003117 Ry

     iteration #  3     ecut=    40.00 Ry     beta= 0.70
     Davidson diagonalization with overlap
     ethr =  3.90E-07,  avg # of iterations =  1.0

     total cpu time spent up to now is        1.6 secs

     total energy              =   12294.76896232 Ry
     estimated scf accuracy    <       0.00000084 Ry

     iteration #  4     ecut=    40.00 Ry     beta= 0.70
     Davidson diagonalization with overlap
     ethr =  1.04E-08,  avg # of iterations =  2.0

     total cpu time spent up to now is        1.7 secs

     total energy              =   12294.76896223 Ry
     estimated scf accuracy    <       0.00000002 Ry

     iteration #  5     ecut=    40.00 Ry     beta= 0.70
     Davidson diagonalization with overlap
     ethr =  2.60E-10,  avg # of iterations =  2.0

     total cpu time spent up to now is        1.8 secs

     total energy              =   12294.76896223 Ry
     estimated scf accuracy    <          2.4E-09 Ry

     iteration #  6     ecut=    40.00 Ry     beta= 0.70
     Davidson diagonalization with overlap
     ethr =  3.05E-11,  avg # of iterations =  2.0

     total cpu time spent up to now is        1.9 secs

     total energy              =   12294.76896223 Ry
     estimated scf accuracy    <          2.0E-11 Ry

     iteration #  7     ecut=    40.00 Ry     beta= 0.70
     Davidson diagonalization with overlap
     ethr =  2.52E-13,  avg # of iterations =  1.0

     total cpu time spent up to now is        1.9 secs

     End of self-consistent calculation

          k = 0.0000 0.0000 0.0000 (  2169 PWs)   bands (ev):

   -35.8969 -12.3571 -12.3566 -12.3565

     highest occupied level (ev):   -12.3565

!    total energy              =   12294.76896223 Ry
     estimated scf accuracy    <          2.5E-13 Ry

     convergence has been achieved in   7 iterations
 ROUTINE_ZERO BEGINNING
 check_charge   4.0000000000000169     
     zero_current :      0.03s CPU      0.04s WALL (       1 calls)
 ZERO CURRENT CALCULATED
     routine_zero :      0.03s CPU      0.04s WALL (       1 calls)
     calcolo_i    :      0.00s CPU      0.00s WALL (       1 calls)
 IONIC CURRENT CALCULATED
 BEGIN: HARTREE & KOHN
 check_charge   4.0000000000000169     
 check_charge   4.0000000000000639     
     hartree_curr :      0.02s CPU      0.02s WALL (       1 calls)
 HARTREE CURRENT CALCULATED
     xc_current   :      0.01s CPU      0.01s WALL (       1 calls)
 X-C CURRENT CALCULATED
     charge density from previous step
     project      :      0.14s CPU      0.15s WALL (       1 calls)
     kohn-first   :      0.00s CPU      0.00s WALL (       1 calls)
     kohn-second  :      0.00s CPU      0.00s WALL (       1 calls)
  KOHN POLARIZATION   1 COMPLETED
     project      :      0.25s CPU      0.32s WALL (       2 calls)
     kohn-first   :      0.00s CPU      0.00s WALL (       2 calls)
     kohn-second  :      0.00s CPU      0.00s WALL (       2 calls)
  KOHN POLARIZATION   2 COMPLETED
     project      :      0.38s CPU      0.47s WALL (       3 calls)
     kohn-first   :      0.00s CPU      0.00s WALL (       3 calls)
     kohn-second  :      0.00s CPU      0.00s WALL (       3 calls)
  KOHN POLARIZATION   3 COMPLETED
     kohn_current :      0.44s CPU      0.54s WALL (       1 calls)
 KOHN CURRENT CALCULATED
total energy current:   0.435727334926E+02  0.609507389550E+02  0.653307663646E+01
center of mass velocity of type   1:  -0.655865195716E-02  0.388259909892E-02  0.309411879974E-02
center of mass velocity of type   2:   0.117835578422E-01 -0.709993756873E-02 -0.537011079675E-02
 Finished reading trajectory  at step            0

     init_run     :      0.10s CPU      0.14s WALL (       1 calls)
     electrons    :      1.30s CPU      1.56s WALL (       2 calls)
     update_pot   :      0.11s CPU      0.14s WALL (       3 calls)

     Called by init_run:
     wfcinit      :      0.03s CPU      0.04s WALL (       1 calls)
     potinit      :      0.04s CPU      0.05s WALL (       1 calls)
     hinit0       :      0.04s CPU      0.04s WALL (       1 calls)

     Called by electrons:
     c_bands      :      0.36s CPU      0.39s WALL (      21 calls)
     sum_band     :      0.13s CPU      0.16s WALL (      22 calls)
     v_of_rho     :      0.84s CPU      1.06s WALL (      25 calls)
     mix_rho      :      0.08s CPU      0.12s WALL (      21 calls)

     Called by c_bands:
     init_us_2    :      0.03s CPU      0.03s WALL (      46 calls)
     regterg      :      0.34s CPU      0.37s WALL (      21 calls)

     Called by *egterg:
     rdiaghg      :      0.00s CPU      0.00s WALL (      62 calls)
     h_psi        :      0.64s CPU      0.77s WALL (     142 calls)
     g_psi        :      0.00s CPU      0.00s WALL (      42 calls)

     Called by h_psi:
     h_psi:calbec :      0.03s CPU      0.03s WALL (     142 calls)
     vloc_psi     :      0.60s CPU      0.72s WALL (     142 calls)
     add_vuspsi   :      0.01s CPU      0.02s WALL (     142 calls)

     General routines
     calbec       :      0.05s CPU      0.05s WALL (     242 calls)
     fft          :      0.30s CPU      0.37s WALL (     199 calls)
     ffts         :      0.05s CPU      0.05s WALL (      28 calls)
     fftw         :      0.61s CPU      0.73s WALL (     598 calls)

     Parallel routines

     PWSCF        :      2.11s CPU      2.55s WALL


   This run was terminated on:  22:22:15  19May2021            

=------------------------------------------------------------------------------=
   JOB DONE.
=------------------------------------------------------------------------------=
